# vtk DataFile Version 4.0
vtk output
ASCII
DATASET UNSTRUCTURED_GRID
POINTS 14 float
0.0000000e+00 0.0000000e+00 1.0000000e+00 
0.0000000e+00 0.0000000e+00 0.0000000e+00 
0.0000000e+00 1.0000000e+00 1.0000000e+00 
0.0000000e+00 1.0000000e+00 0.0000000e+00 
1.0000000e+00 0.0000000e+00 1.0000000e+00 
1.0000000e+00 0.0000000e+00 0.0000000e+00 
1.0000000e+00 1.0000000e+00 1.0000000e+00 
1.0000000e+00 1.0000000e+00 0.0000000e+00 
0.0000000e+00 5.0000000e-01 5.0000000e-01 
1.0000000e+00 5.0000000e-01 5.0000000e-01 
5.0000000e-01 0.0000000e+00 5.0000000e-01 
5.0000000e-01 1.0000000e+00 5.0000000e-01 
5.0000000e-01 5.0000000e-01 0.0000000e+00 
5.0000000e-01 5.0000000e-01 1.0000000e+00 

CELLS 24 120
4 13 8 11 10
4 11 13 10 9
4 10 8 11 12
4 9 10 11 12
4 8 0 1 10
4 11 2 3 8
4 7 11 3 12
4 8 2 0 13
4 10 13 0 4
4 13 11 2 6
4 7 6 11 9
4 6 4 13 9
4 1 3 8 12
4 9 4 10 5
4 7 9 12 5
4 12 10 1 5
4 11 2 8 13
4 4 10 13 9
4 0 8 13 10
4 10 1 8 12
4 13 11 6 9
4 11 7 9 12
4 8 3 11 12
4 12 9 10 5

CELL_TYPES 24
10
10
10
10
10
10
10
10
10
10
10
10
10
10
10
10
10
10
10
10
10
10
10
10
POINT_DATA 14
FIELD FieldData 1
DISPLACEMENT 3 14  float
-4.6071284e-03 4.0336317e-04 -1.2300000e-02 
4.6071284e-03 -4.0336317e-04 -1.2300000e-02 
-4.6071284e-03 -4.0336317e-04 -1.2300000e-02 
4.6071284e-03 4.0336317e-04 -1.2300000e-02 
0.0000000e+00 0.0000000e+00 0.0000000e+00 
0.0000000e+00 0.0000000e+00 0.0000000e+00 
0.0000000e+00 0.0000000e+00 0.0000000e+00 
0.0000000e+00 0.0000000e+00 0.0000000e+00 
1.7889868e-19 -7.7513761e-19 -1.2300000e-02 
0.0000000e+00 0.0000000e+00 0.0000000e+00 
5.7774337e-19 -1.0431846e-19 -5.0454102e-03 
-5.5541745e-19 -5.3572347e-19 -5.0454102e-03 
3.1443601e-03 2.1534475e-19 -5.2559990e-03 
-3.1443601e-03 -5.6778344e-19 -5.2559990e-03 
CELL_DATA 24
FIELD FieldData 0
