# vtk DataFile Version 4.0
vtk output
ASCII
DATASET UNSTRUCTURED_GRID
POINTS 2524 float
-1.3600737e-02 9.2723727e-02 1.0000000e-01 
-1.1117464e-02 9.2369959e-02 1.0000000e-01 
-1.4838499e-02 9.0371020e-02 1.0000000e-01 
-1.2160867e-02 9.4958462e-02 1.0000000e-01 
-1.2428896e-02 9.0104103e-02 1.0000000e-01 
-9.5961727e-03 9.4500601e-02 1.0000000e-01 
-1.3518542e-02 8.7723628e-02 1.0000000e-01 
-1.5864562e-02 8.7918580e-02 1.0000000e-01 
-1.0530048e-02 9.7057916e-02 1.0000000e-01 
-7.8788539e-03 9.6476652e-02 1.0000000e-01 
-1.4376495e-02 8.5250191e-02 1.0000000e-01 
-1.6670976e-02 8.5385412e-02 1.0000000e-01 
-8.7209158e-03 9.9005811e-02 1.0000000e-01 
-5.9811245e-03 9.8280147e-02 1.0000000e-01 
-1.4994953e-02 8.2706288e-02 1.0000000e-01 
-1.7251492e-02 8.2791135e-02 1.0000000e-01 
-6.7474889e-03 1.0078707e-01 1.0000000e-01 
-3.9202408e-03 9.9894680e-02 1.0000000e-01 
-1.3600737e-02 9.2723727e-02 8.7499991e-02 
-1.5368291e-02 8.0115035e-02 1.0000000e-01 
-1.1117464e-02 9.2369959e-02 8.7499991e-02 
-1.2160867e-02 9.4958462e-02 8.7499991e-02 
-1.4838499e-02 9.0371020e-02 8.7499991e-02 
-1.2428894e-02 9.0104103e-02 8.7499991e-02 
-1.7601609e-02 8.0155857e-02 1.0000000e-01 
-4.6250601e-03 1.0238787e-01 1.0000000e-01 
-9.5961727e-03 9.4500601e-02 8.7499991e-02 
-1.3518536e-02 8.7723650e-02 8.7499991e-02 
-1.0530052e-02 9.7057909e-02 8.7499991e-02 
-1.5864562e-02 8.7918587e-02 8.7499991e-02 
-7.8788549e-03 9.6476652e-02 8.7499991e-02 
-1.4376482e-02 8.5250244e-02 8.7499991e-02 
-1.7149430e-03 1.0130557e-01 1.0000000e-01 
-8.7209288e-03 9.9005796e-02 8.7499991e-02 
-1.6670974e-02 8.5385419e-02 8.7499991e-02 
-1.5493116e-02 7.7500008e-02 1.0000000e-01 
-5.9811310e-03 9.8280139e-02 8.7499991e-02 
-1.7718617e-02 7.7499993e-02 1.0000000e-01 
-2.3700756e-03 1.0379581e-01 1.0000000e-01 
-1.4994934e-02 8.2706384e-02 8.7499991e-02 
-6.7475229e-03 1.0078704e-01 8.7499991e-02 
-1.7251486e-02 8.2791157e-02 8.7499991e-02 
6.1471661e-04 1.0250000e-01 1.0000000e-01 
-3.9202627e-03 9.9894665e-02 8.7499991e-02 
-1.5368290e-02 8.0115050e-02 8.7499991e-02 
-1.5368292e-02 7.4884973e-02 1.0000000e-01 
-4.6251309e-03 1.0238782e-01 8.7499991e-02 
-1.7601604e-02 8.0155902e-02 8.7499991e-02 
-1.7601607e-02 7.4844137e-02 1.0000000e-01 
-0.0000000e+00 1.0500000e-01 1.0000000e-01 
-1.7149959e-03 1.0130554e-01 8.7499991e-02 
3.2798690e-03 1.0250000e-01 1.0000000e-01 
-1.5493116e-02 7.7499904e-02 8.7499991e-02 
-2.3702064e-03 1.0379574e-01 8.7499991e-02 
-1.7718617e-02 7.7500083e-02 8.7499991e-02 
2.6781005e-03 1.0500000e-01 1.0000000e-01 
-1.4994955e-02 7.2293721e-02 1.0000000e-01 
-1.7251490e-02 7.2208859e-02 1.0000000e-01 
6.1471661e-04 1.0250000e-01 8.7499991e-02 
-1.5368287e-02 7.4884921e-02 8.7499991e-02 
6.0768481e-03 1.0250000e-01 1.0000000e-01 
-0.0000000e+00 1.0500000e-01 8.7499991e-02 
-1.7601607e-02 7.4844129e-02 8.7499991e-02 
5.4879682e-03 1.0500000e-01 1.0000000e-01 
-1.4376498e-02 6.9749817e-02 1.0000000e-01 
3.2798694e-03 1.0250000e-01 8.7499991e-02 
-1.6670974e-02 6.9614582e-02 1.0000000e-01 
2.6781012e-03 1.0500000e-01 8.7499991e-02 
-1.4994950e-02 7.2293699e-02 8.7499991e-02 
-1.7251475e-02 7.2208777e-02 8.7499991e-02 
9.0098707e-03 1.0250000e-01 1.0000000e-01 
-1.3600737e-02 9.2723727e-02 7.4999996e-02 
-1.1117464e-02 9.2369959e-02 7.4999996e-02 
-1.2160868e-02 9.4958462e-02 7.4999996e-02 
-1.4838499e-02 9.0371020e-02 7.4999996e-02 
-1.2428894e-02 9.0104103e-02 7.4999996e-02 
8.4337983e-03 1.0500000e-01 1.0000000e-01 
6.0768486e-03 1.0250000e-01 8.7499991e-02 
-9.5961727e-03 9.4500601e-02 7.4999996e-02 
-1.3518546e-02 6.7276381e-02 1.0000000e-01 
-1.3518536e-02 8.7723643e-02 7.4999996e-02 
-1.0530052e-02 9.7057909e-02 7.4999996e-02 
-1.5864560e-02 8.7918587e-02 7.4999996e-02 
-1.5864560e-02 6.7081414e-02 1.0000000e-01 
5.4879687e-03 1.0500000e-01 8.7499991e-02 
-7.8788558e-03 9.6476652e-02 7.4999996e-02 
-1.4376483e-02 8.5250236e-02 7.4999996e-02 
-1.4376496e-02 6.9749802e-02 8.7499991e-02 
-8.7209279e-03 9.9005796e-02 7.4999996e-02 
-1.6670972e-02 8.5385419e-02 7.4999996e-02 
-1.6670963e-02 6.9614545e-02 8.7499991e-02 
-5.9811347e-03 9.8280132e-02 7.4999996e-02 
-1.4994935e-02 8.2706377e-02 7.4999996e-02 
-6.7475205e-03 1.0078704e-01 7.4999996e-02 
-1.7251484e-02 8.2791165e-02 7.4999996e-02 
1.2083010e-02 1.0250000e-01 1.0000000e-01 
9.0098716e-03 1.0250000e-01 8.7499991e-02 
-3.9202701e-03 9.9894658e-02 7.4999996e-02 
-1.2428899e-02 6.4895906e-02 1.0000000e-01 
1.1519642e-02 1.0500000e-01 1.0000000e-01 
-1.5368290e-02 8.0115058e-02 7.4999996e-02 
-1.4838495e-02 6.4628974e-02 1.0000000e-01 
8.4337983e-03 1.0500000e-01 8.7499991e-02 
-4.6251258e-03 1.0238782e-01 7.4999996e-02 
-1.7601606e-02 8.0155894e-02 7.4999996e-02 
-1.3518546e-02 6.7276374e-02 8.7499991e-02 
-1.5864553e-02 6.7081392e-02 8.7499991e-02 
-1.7150094e-03 1.0130554e-01 7.4999996e-02 
-1.5493116e-02 7.7499934e-02 7.4999996e-02 
-2.3701969e-03 1.0379574e-01 7.4999996e-02 
-1.7718617e-02 7.7500060e-02 7.4999996e-02 
1.2083010e-02 1.0250000e-01 8.7499991e-02 
-1.1117469e-02 6.2630050e-02 1.0000000e-01 
6.1471661e-04 1.0250000e-01 7.4999996e-02 
-1.3600733e-02 6.2276267e-02 1.0000000e-01 
1.5300166e-02 1.0250000e-01 1.0000000e-01 
-1.2428900e-02 6.4895906e-02 8.7499991e-02 
1.1519643e-02 1.0500000e-01 8.7499991e-02 
-1.5368288e-02 7.4884929e-02 7.4999996e-02 
-1.4838492e-02 6.4628966e-02 8.7499991e-02 
1.4749384e-02 1.0500000e-01 1.0000000e-01 
-0.0000000e+00 1.0500000e-01 7.4999996e-02 
-1.7601607e-02 7.4844122e-02 7.4999996e-02 
3.2798708e-03 1.0250000e-01 7.4999996e-02 
2.6781023e-03 1.0500000e-01 7.4999996e-02 
-1.4994948e-02 7.2293691e-02 7.4999996e-02 
-9.5961774e-03 6.0499407e-02 1.0000000e-01 
-1.7251475e-02 7.2208785e-02 7.4999996e-02 
-1.1117470e-02 6.2630050e-02 8.7499991e-02 
-1.2160863e-02 6.0041532e-02 1.0000000e-01 
-1.3600732e-02 6.2276267e-02 8.7499991e-02 
1.5300167e-02 1.0250000e-01 8.7499991e-02 
6.0768500e-03 1.0250000e-01 7.4999996e-02 
1.4749384e-02 1.0500000e-01 8.7499991e-02 
1.8665034e-02 1.0250000e-01 1.0000000e-01 
5.4879701e-03 1.0500000e-01 7.4999996e-02 
-1.4376494e-02 6.9749802e-02 7.4999996e-02 
1.8126702e-02 1.0500000e-01 1.0000000e-01 
-1.6670963e-02 6.9614545e-02 7.4999996e-02 
-7.8788595e-03 5.8523357e-02 1.0000000e-01 
-9.5961811e-03 6.0499411e-02 8.7499991e-02 
-1.0530042e-02 5.7942081e-02 1.0000000e-01 
-1.2160863e-02 6.0041532e-02 8.7499991e-02 
9.0098726e-03 1.0250000e-01 7.4999996e-02 
8.4338002e-03 1.0500000e-01 7.4999996e-02 
-1.3518545e-02 6.7276374e-02 7.4999996e-02 
-1.5864553e-02 6.7081392e-02 7.4999996e-02 
1.8665034e-02 1.0250000e-01 8.7499991e-02 
1.8126702e-02 1.0500000e-01 8.7499991e-02 
-5.9811305e-03 5.6719862e-02 1.0000000e-01 
-7.8788726e-03 5.8523368e-02 8.7499991e-02 
-8.7209092e-03 5.5994183e-02 1.0000000e-01 
-1.0530042e-02 5.7942081e-02 8.7499991e-02 
2.2181055e-02 1.0250000e-01 1.0000000e-01 
1.2083011e-02 1.0250000e-01 7.4999996e-02 
2.1655027e-02 1.0500000e-01 1.0000000e-01 
-1.2428900e-02 6.4895906e-02 7.4999996e-02 
-1.3600738e-02 9.2723727e-02 6.2499993e-02 
1.1519643e-02 1.0500000e-01 7.4999996e-02 
-1.1117464e-02 9.2369959e-02 6.2499993e-02 
-1.2160869e-02 9.4958462e-02 6.2499993e-02 
-1.4838499e-02 9.0371020e-02 6.2499993e-02 
-1.2428895e-02 9.0104103e-02 6.2499993e-02 
-1.4838493e-02 6.4628966e-02 7.4999996e-02 
-9.5961727e-03 9.4500601e-02 6.2499993e-02 
-1.3518537e-02 8.7723643e-02 6.2499993e-02 
-1.0530052e-02 9.7057909e-02 6.2499993e-02 
-1.5864560e-02 8.7918587e-02 6.2499993e-02 
-7.8788577e-03 9.6476644e-02 6.2499993e-02 
-1.4376485e-02 8.5250229e-02 6.2499993e-02 
-1.6670970e-02 8.5385427e-02 6.2499993e-02 
-8.7209269e-03 9.9005803e-02 6.2499993e-02 
-5.9811398e-03 9.8280132e-02 6.2499993e-02 
-1.4994938e-02 8.2706362e-02 6.2499993e-02 
-3.9202473e-03 5.5105329e-02 1.0000000e-01 
-5.9811682e-03 5.6719895e-02 8.7499991e-02 
-1.7251484e-02 8.2791172e-02 6.2499993e-02 
-6.7475168e-03 1.0078704e-01 6.2499993e-02 
-8.7209111e-03 5.5994183e-02 8.7499991e-02 
-6.7474819e-03 5.4212932e-02 1.0000000e-01 
2.2181056e-02 1.0250000e-01 8.7499991e-02 
-1.1117470e-02 6.2630050e-02 7.4999996e-02 
2.1655027e-02 1.0500000e-01 8.7499991e-02 
-3.9202808e-03 9.9894650e-02 6.2499993e-02 
-1.3600732e-02 6.2276267e-02 7.4999996e-02 
1.5300168e-02 1.0250000e-01 7.4999996e-02 
-1.5368289e-02 8.0115065e-02 6.2499993e-02 
1.4749385e-02 1.0500000e-01 7.4999996e-02 
-4.6251179e-03 1.0238782e-01 6.2499993e-02 
-1.7601606e-02 8.0155887e-02 6.2499993e-02 
-1.7150288e-03 1.0130552e-01 6.2499993e-02 
-1.5493116e-02 7.7499963e-02 6.2499993e-02 
2.5851376e-02 1.0250000e-01 1.0000000e-01 
-2.3701836e-03 1.0379575e-01 6.2499993e-02 
-1.7718617e-02 7.7500030e-02 6.2499993e-02 
-1.7149500e-03 5.3694431e-02 1.0000000e-01 
-3.9203316e-03 5.5105384e-02 8.7499991e-02 
2.5337499e-02 1.0500000e-01 1.0000000e-01 
-9.5961811e-03 6.0499411e-02 7.4999996e-02 
-6.7474898e-03 5.4212935e-02 8.7499991e-02 
-4.6250527e-03 5.2612130e-02 1.0000000e-01 
-1.2160863e-02 6.0041532e-02 7.4999996e-02 
6.1471661e-04 1.0250000e-01 6.2499993e-02 
-1.5368289e-02 7.4884936e-02 6.2499993e-02 
-0.0000000e+00 1.0500000e-01 6.2499993e-02 
-1.7601606e-02 7.4844114e-02 6.2499993e-02 
1.8665036e-02 1.0250000e-01 7.4999996e-02 
1.8126704e-02 1.0500000e-01 7.4999996e-02 
3.2798727e-03 1.0250000e-01 6.2499993e-02 
2.5851376e-02 1.0250000e-01 8.7499991e-02 
6.1471661e-04 5.2499998e-02 1.0000000e-01 
-1.7151133e-03 5.3694524e-02 8.7499991e-02 
2.6781042e-03 1.0500000e-01 6.2499993e-02 
2.5337499e-02 1.0500000e-01 8.7499991e-02 
-1.4994946e-02 7.2293676e-02 6.2499993e-02 
-7.8788716e-03 5.8523368e-02 7.4999996e-02 
-1.7251477e-02 7.2208792e-02 6.2499993e-02 
-1.0530043e-02 5.7942081e-02 7.4999996e-02 
-4.6250741e-03 5.2612145e-02 8.7499991e-02 
-2.3700679e-03 5.1204182e-02 1.0000000e-01 
6.0768514e-03 1.0250000e-01 6.2499993e-02 
3.2995713e-03 5.2499998e-02 1.0000000e-01 
5.4879719e-03 1.0500000e-01 6.2499993e-02 
-1.4376492e-02 6.9749795e-02 6.2499993e-02 
-1.6670965e-02 6.9614552e-02 6.2499993e-02 
2.9678803e-02 1.0250000e-01 1.0000000e-01 
[...]
POINT_DATA 2524
FIELD FieldData 1
DISPLACEMENT 3 2524  float
-8.2394027e-04 7.3644327e-04 8.6324268e-05 
-7.8576169e-04 8.9699181e-04 2.7959366e-04 
-6.7056646e-04 6.1041367e-04 1.6403366e-04 
-8.5024571e-04 8.0740749e-04 3.4259832e-05 
-6.2285218e-04 8.9218770e-04 3.8072522e-04 
-8.2717324e-04 8.5440208e-04 2.0182115e-04 
-3.1964810e-04 8.5413636e-04 5.0989777e-04 
-3.7091554e-04 4.5036236e-04 2.7160224e-04 
-7.7635242e-04 8.1062096e-04 3.1734751e-06 
-7.7255134e-04 7.5885601e-04 1.4256711e-04 
1.3292633e-04 8.0318336e-04 6.7156268e-04 
8.3983068e-05 2.8362285e-04 4.1263827e-04 
-6.3378428e-04 7.4310601e-04 -1.1939355e-05 
-6.5058033e-04 6.1462924e-04 9.6931806e-05 
7.3158869e-04 7.6204090e-04 8.6998253e-04 
6.9069955e-04 1.4147541e-04 5.8988802e-04 
-4.5561019e-04 6.1210489e-04 -1.6337302e-05 
-4.8966816e-04 4.3623999e-04 6.0046568e-05 
2.6338354e-05 -1.1314585e-04 1.5699894e-04 
1.4574375e-03 7.4963493e-04 1.1094293e-03 
7.2117007e-05 1.5848575e-04 3.2409310e-04 
-1.4494512e-04 7.0217393e-05 1.0600778e-04 
3.2592585e-04 -3.4353937e-04 2.3132849e-04 
3.7502343e-04 4.1449028e-05 4.2221462e-04 
1.4314831e-03 5.6740111e-05 8.0495595e-04 
-2.7361300e-04 4.3500122e-04 -1.5565163e-05 
-1.0802525e-04 2.3370069e-04 2.4814886e-04 
8.1833336e-04 -1.0119782e-04 5.4715638e-04 
-2.1219811e-04 1.9254618e-04 7.3661453e-05 
7.7105843e-04 -5.9948658e-04 3.3337463e-04 
-1.8922576e-04 2.5890584e-04 1.8958005e-04 
1.4109310e-03 -2.4705919e-04 7.0326310e-04 
-3.1444337e-04 2.4780212e-04 2.7390573e-05 
-2.0410912e-04 2.4847736e-04 5.5071152e-05 
1.3697679e-03 -8.5399108e-04 4.6706412e-04 
2.2355160e-03 7.7880447e-04 1.3835081e-03 
-1.9843513e-04 2.3493537e-04 1.4358106e-04 
2.3006503e-03 3.2067943e-05 1.0649804e-03 
-1.1626507e-04 2.4047143e-04 -1.6393060e-05 
2.1511102e-03 -3.7014100e-04 8.9449086e-04 
-1.5114769e-04 2.4161054e-04 4.5245015e-05 
2.1193339e-03 -1.0770408e-03 6.3560234e-04 
-9.1208218e-05 9.1191287e-06 1.3359162e-05 
-1.6254124e-04 1.7194905e-04 1.0551709e-04 
3.0257013e-03 -4.4396034e-04 1.1246612e-03 
3.1194459e-03 8.2320737e-04 1.6970173e-03 
-8.3458224e-05 1.8413873e-04 3.9059745e-05 
3.0042964e-03 -1.2376219e-03 8.3994668e-04 
3.1916553e-03 3.3957407e-05 1.3537724e-03 
0.0000000e+00 0.0000000e+00 0.0000000e+00 
-1.0535732e-04 8.9578971e-05 7.1277042e-05 
-4.4713626e-05 -1.7567466e-10 2.1885394e-06 
4.0157135e-03 -4.4606964e-04 1.4008124e-03 
-2.8137947e-05 9.4572832e-05 3.0547428e-05 
4.0295040e-03 -1.3168667e-03 1.0668763e-03 
0.0000000e+00 0.0000000e+00 0.0000000e+00 
4.0063164e-03 9.5018570e-04 2.0484223e-03 
4.0920745e-03 1.4326710e-04 1.6721538e-03 
-3.8156184e-05 3.8656459e-08 1.8614513e-05 
5.0908113e-03 -3.7812401e-04 1.7067187e-03 
-2.0472002e-05 1.5625785e-06 6.7537620e-08 
0.0000000e+00 0.0000000e+00 0.0000000e+00 
5.1066317e-03 -1.2830843e-03 1.3404763e-03 
0.0000000e+00 0.0000000e+00 0.0000000e+00 
4.8725544e-03 1.1649121e-03 2.4384113e-03 
-1.4333708e-05 4.6905134e-06 5.0951949e-06 
4.9740011e-03 3.4602184e-04 2.0260569e-03 
0.0000000e+00 0.0000000e+00 0.0000000e+00 
6.1557768e-03 -2.1414171e-04 2.0517239e-03 
6.1898711e-03 -1.1325050e-03 1.6532296e-03 
-9.3358849e-06 1.1099937e-06 -1.3188114e-07 
8.0316287e-04 -9.8790193e-04 1.3630032e-04 
9.0096868e-04 -5.3993519e-04 3.1059684e-04 
4.5214020e-04 -6.8902352e-04 8.6759814e-05 
1.2923589e-03 -1.3168374e-03 2.0764416e-04 
1.3889425e-03 -7.5871241e-04 4.1237712e-04 
0.0000000e+00 0.0000000e+00 0.0000000e+00 
-6.0167604e-06 1.4577544e-06 1.5586395e-06 
5.4552394e-04 -3.4847271e-04 2.3001283e-04 
5.7043042e-03 1.4671340e-03 2.8687771e-03 
2.0224873e-03 -9.8598702e-04 5.3935213e-04 
2.2000550e-04 -4.3747458e-04 5.4741540e-05 
1.9322049e-03 -1.6526709e-03 3.0471143e-04 
5.8244369e-03 6.3432602e-04 2.4176538e-03 
0.0000000e+00 0.0000000e+00 0.0000000e+00 
3.0345673e-04 -1.9658262e-04 1.6651450e-04 
2.8066791e-03 -1.1981101e-03 6.9525128e-04 
7.1921661e-03 4.6004807e-05 2.4368665e-03 
8.2882230e-05 -2.4328825e-04 3.5771689e-05 
2.7268266e-03 -1.9684962e-03 4.3088678e-04 
7.2467988e-03 -8.8314095e-04 2.0045917e-03 
1.5198012e-04 -8.9016641e-05 1.1608561e-04 
3.7377954e-03 -1.3687972e-03 8.8343257e-04 
1.4857729e-05 -1.0876254e-04 2.5354379e-05 
3.6714757e-03 -2.2364813e-03 5.8882392e-04 
-4.1868261e-06 5.8770871e-07 -7.8309583e-08 
-2.4837980e-06 6.5005031e-07 5.9226875e-07 
6.7303772e-05 -2.2950677e-05 7.5073636e-05 
6.4936751e-03 1.8546459e-03 3.3407577e-03 
0.0000000e+00 0.0000000e+00 0.0000000e+00 
4.8039816e-03 -1.4711403e-03 1.1068458e-03 
6.6368706e-03 1.0018143e-03 2.8485842e-03 
0.0000000e+00 0.0000000e+00 0.0000000e+00 
-9.2887531e-06 -2.8861868e-05 1.9172870e-05 
4.7536916e-03 -2.4314933e-03 7.8033074e-04 
8.1869364e-03 3.9913063e-04 2.8633089e-03 
8.2654972e-03 -5.4311217e-04 2.3951768e-03 
2.6099029e-05 1.2179777e-05 4.0578772e-05 
5.9878123e-03 -1.4787010e-03 1.3678242e-03 
-3.6654985e-06 -3.4061603e-07 1.2813395e-05 
5.9677879e-03 -2.5402138e-03 1.0073388e-03 
-1.0226310e-06 2.8573044e-07 2.4912288e-07 
7.2364663e-03 2.3250566e-03 3.8548734e-03 
-7.8477715e-06 8.6392322e-07 1.5459753e-05 
7.4086920e-03 1.4439999e-03 3.3200062e-03 
-1.8358838e-06 2.8422613e-07 -3.3301919e-08 
9.1315601e-03 8.4114796e-04 3.3317502e-03 
0.0000000e+00 0.0000000e+00 0.0000000e+00 
7.2446293e-03 -1.4234773e-03 1.6703996e-03 
9.2387144e-03 -1.1916994e-04 2.8257174e-03 
0.0000000e+00 0.0000000e+00 0.0000000e+00 
0.0000000e+00 0.0000000e+00 0.0000000e+00 
7.2315647e-03 -2.4861596e-03 1.2794399e-03 
-4.2799238e-06 -1.2604155e-06 4.1967587e-06 
0.0000000e+00 0.0000000e+00 0.0000000e+00 
8.4802415e-03 -1.2488326e-03 2.0145832e-03 
7.9302592e-03 2.8763460e-03 4.4109100e-03 
8.4895156e-03 -2.3157236e-03 1.5895492e-03 
1.0020556e-02 1.3681445e-03 3.8423084e-03 
8.1391307e-03 1.9583437e-03 3.8325128e-03 
1.0162266e-02 3.8339847e-04 3.2967126e-03 
-4.2001358e-07 1.2276905e-07 1.0757174e-07 
-1.8053067e-06 -3.1124480e-07 1.2765706e-06 
0.0000000e+00 0.0000000e+00 0.0000000e+00 
-7.8564040e-07 1.3104857e-07 -1.2408741e-08 
0.0000000e+00 0.0000000e+00 0.0000000e+00 
9.6809808e-03 -9.6097455e-04 2.4010767e-03 
0.0000000e+00 0.0000000e+00 0.0000000e+00 
9.7146435e-03 -2.0373587e-03 1.9400108e-03 
8.5728699e-03 3.5066330e-03 5.0079450e-03 
1.0850067e-02 1.9767215e-03 4.3944274e-03 
8.8275336e-03 2.5438727e-03 4.3860655e-03 
1.1033614e-02 9.6083031e-04 3.8082267e-03 
-7.3394409e-07 -1.1728795e-07 4.2151456e-07 
0.0000000e+00 0.0000000e+00 0.0000000e+00 
1.0833845e-02 -5.6589686e-04 2.8306085e-03 
1.0895598e-02 -1.6558398e-03 2.3314643e-03 
-1.7169889e-07 5.1757180e-08 4.6254577e-08 
0.0000000e+00 0.0000000e+00 0.0000000e+00 
9.1613000e-03 4.2134277e-03 5.6444234e-03 
1.1616629e-02 2.6637765e-03 4.9867849e-03 
9.4720554e-03 3.2003848e-03 4.9799695e-03 
1.1850585e-02 1.6106078e-03 4.3597422e-03 
-3.2793000e-07 5.8270736e-08 -4.3103343e-09 
-2.8481472e-07 -4.5394568e-08 1.4815610e-07 
0.0000000e+00 0.0000000e+00 0.0000000e+00 
1.1928324e-02 -6.9883266e-05 3.3033416e-03 
1.5737289e-03 -1.8691923e-03 1.4388970e-04 
0.0000000e+00 0.0000000e+00 0.0000000e+00 
1.7014144e-03 -1.2091622e-03 3.1179763e-04 
1.0275231e-03 -1.4440669e-03 9.5373493e-05 
2.2712329e-03 -2.3060648e-03 2.1353606e-04 
2.3908841e-03 -1.5413030e-03 4.1479309e-04 
1.2023327e-02 -1.1776366e-03 2.7642171e-03 
1.1579309e-03 -8.9034624e-04 2.2964543e-04 
3.2337510e-03 -1.8638334e-03 5.4252188e-04 
6.1963976e-04 -1.0522973e-03 6.3604879e-05 
3.1264012e-03 -2.7291910e-03 3.0839650e-04 
7.4672460e-04 -6.0318643e-04 1.6445343e-04 
4.2300844e-03 -2.1508043e-03 6.9873646e-04 
4.1381740e-03 -3.1112300e-03 4.3212713e-04 
3.3213882e-04 -7.1016647e-04 4.4054770e-05 
4.4954853e-04 -3.6053028e-04 1.1254769e-04 
5.3726016e-03 -2.3751515e-03 8.8696339e-04 
9.6914014e-03 4.9925861e-03 6.3183038e-03 
1.2316266e-02 3.4259451e-03 5.6172032e-03 
5.2983025e-03 -3.4253232e-03 5.8789103e-04 
1.4435322e-04 -4.2800445e-04 3.2199809e-05 
1.2610373e-02 2.3308406e-03 4.9500293e-03 
1.0068834e-02 3.9274027e-03 5.6128902e-03 
-6.9617862e-08 2.1425496e-08 1.9572678e-08 
1.2956308e-02 5.2062329e-04 3.8188526e-03 
0.0000000e+00 0.0000000e+00 0.0000000e+00 
2.4572009e-04 -1.6989889e-04 7.0754868e-05 
1.3091008e-02 -6.0945482e-04 3.2383071e-03 
-1.0549527e-07 -1.7328562e-08 5.3637041e-08 
6.6479528e-03 -2.5104010e-03 1.1104586e-03 
0.0000000e+00 0.0000000e+00 0.0000000e+00 
3.5556157e-05 -2.1057531e-04 2.3638875e-05 
6.5930230e-03 -3.6473835e-03 7.7851798e-04 
1.1376144e-04 -3.4514826e-05 3.6980215e-05 
8.0373194e-03 -2.5312966e-03 1.3718390e-03 
-1.3350150e-07 2.5087719e-08 -1.4437412e-09 
-3.0371000e-06 -6.6451081e-05 1.4292767e-05 
8.0145216e-03 -3.7634214e-03 1.0072961e-03 
1.0161913e-02 5.8418550e-03 7.0285471e-03 
1.2944038e-02 4.2589367e-03 6.2825810e-03 
0.0000000e+00 0.0000000e+00 0.0000000e+00 
1.3911529e-02 1.1992403e-03 4.3761139e-03 
1.3309024e-02 3.1194468e-03 5.5770008e-03 
1.0611434e-02 4.7230017e-03 6.2829386e-03 
1.4093498e-02 4.2447649e-05 3.7533995e-03 
2.4433230e-05 9.6459762e-06 1.1932180e-05 
9.4856182e-03 -2.4716659e-03 1.6741045e-03 
0.0000000e+00 0.0000000e+00 0.0000000e+00 
9.4743175e-03 -3.6960572e-03 1.2765558e-03 
-3.7322891e-08 -6.5350605e-09 1.9431511e-08 
0.0000000e+00 0.0000000e+00 0.0000000e+00 
9.1324137e-06 -2.6543048e-06 3.6016668e-06 
-2.7889079e-08 8.7044496e-09 8.1076079e-09 
1.0516712e-02 6.7161913e-03 7.7556306e-03 
1.3493629e-02 5.1563489e-03 6.9790650e-03 
0.0000000e+00 0.0000000e+00 0.0000000e+00 
0.0000000e+00 0.0000000e+00 0.0000000e+00 
1.0900708e-02 -2.2755770e-03 2.0181697e-03 
1.4788833e-02 1.9596543e-03 4.9734698e-03 
1.0913976e-02 -3.4982539e-03 1.5852640e-03 
1.5026608e-02 7.7242265e-04 4.3086852e-03 
1.3941698e-02 3.9734840e-03 6.2373611e-03 
1.1080186e-02 5.5773007e-03 6.9868187e-03 
3.8525618e-06 -1.0123910e-06 1.1798157e-06 
1.0473211e-02 7.7670328e-03 8.5344268e-03 
0.0000000e+00 0.0000000e+00 0.0000000e+00 
1.2272145e-02 -1.9500748e-03 2.4049771e-03 
1.2312775e-02 -3.1794233e-03 1.9347917e-03 
-5.3017299e-08 1.0479737e-08 -4.7833365e-10 
1.3961260e-02 6.1107120e-03 7.7174623e-03 
1.5583568e-02 2.7954183e-03 5.6086304e-03 
0.0000000e+00 0.0000000e+00 0.0000000e+00 
1.5886456e-02 1.5752267e-03 4.9028066e-03 
-1.2623702e-08 -2.4411817e-09 6.9197550e-09 
1.4503709e-02 4.8867133e-03 6.9246818e-03 
1.0425759e-02 8.8714920e-03 9.3492894e-03 
1.1516967e-02 6.4659612e-03 7.7040256e-03 
1.5639358e-06 -4.1835625e-07 4.1354176e-07 
0.0000000e+00 0.0000000e+00 0.0000000e+00 
0.0000000e+00 0.0000000e+00 0.0000000e+00 
1.3587121e-02 -1.5028543e-03 2.8352388e-03 
1.3947099e-02 7.2099017e-03 8.4944433e-03 
1.3659447e-02 -2.7442591e-03 2.3257968e-03 
1.1474583e-02 7.5111175e-03 8.4668407e-03 
-1.0998702e-08 3.4675343e-09 3.2791074e-09 
1.0388622e-02 1.0020265e-02 1.0212466e-02 
1.6291171e-02 3.6996889e-03 6.2787463e-03 
0.0000000e+00 0.0000000e+00 0.0000000e+00 
1.6669080e-02 2.4456063e-03 5.5338060e-03 
6.1191844e-07 -1.6878484e-07 1.5052611e-07 
1.3938976e-02 8.3698854e-03 9.3187168e-03 
1.4982810e-02 5.8582183e-03 7.6536299e-03 
1.4833362e-02 -9.4248145e-04 3.3090138e-03 
0.0000000e+00 0.0000000e+00 0.0000000e+00 
1.1424517e-02 8.6163431e-03 9.2737488e-03 
1.4943059e-02 -2.1997241e-03 2.7585190e-03 
1.4970095e-02 6.9555640e-03 8.4155705e-03 
-4.0872621e-09 -9.0325558e-10 2.4003628e-09 
1.0359395e-02 1.1203099e-02 1.1121323e-02 
1.3934128e-02 9.5626777e-03 1.0185687e-02 
1.6906716e-02 4.6647983e-03 6.9808788e-03 
0.0000000e+00 0.0000000e+00 0.0000000e+00 
1.1373500e-02 9.7704185e-03 1.0127186e-02 
1.7370429e-02 3.3778532e-03 6.1990335e-03 
1.6000206e-02 -2.7832534e-04 3.8257195e-03 
-2.0546587e-08 4.2535655e-09 -1.5993019e-10 
1.6154034e-02 -1.5541905e-03 3.2328821e-03 
2.3077077e-07 -6.5611147e-08 5.5215846e-08 
0.0000000e+00 0.0000000e+00 0.0000000e+00 
1.4954566e-02 8.1185633e-03 9.2281867e-03 
0.0000000e+00 0.0000000e+00 0.0000000e+00 
1.3931096e-02 1.0779079e-02 1.1096933e-02 
1.7435700e-02 5.6528258e-03 7.7034426e-03 
1.1322531e-02 1.0960246e-02 1.1028090e-02 
1.0336080e-02 1.2411405e-02 1.2075906e-02 
1.7078916e-02 4.7972743e-04 4.3841507e-03 
1.4930236e-02 9.3157133e-03 1.0087698e-02 
1.7988505e-02 4.3663615e-03 6.8946267e-03 
1.7284460e-02 -8.1669085e-04 3.7484390e-03 
-4.2578394e-09 1.3533571e-09 1.2934150e-09 
0.0000000e+00 0.0000000e+00 0.0000000e+00 
2.3264505e-03 -2.7394863e-03 1.4525004e-04 
2.4838215e-03 -1.8598053e-03 3.1127833e-04 
1.5821434e-03 -2.1838306e-03 9.7332289e-05 
3.2366081e-03 -3.2882851e-03 2.1429641e-04 
3.3787859e-03 -2.3089442e-03 4.1443447e-04 
1.7496175e-03 -1.4107424e-03 2.2903272e-04 
4.4356827e-03 -2.7303763e-03 5.4242712e-04 
4.3121786e-03 -3.8018881e-03 3.0872322e-04 
9.9772925e-04 -1.6479887e-03 6.6010718e-05 
1.7431242e-02 6.7949542e-03 8.4986128e-03 
8.3880479e-08 -2.4526628e-08 1.9978234e-08 
1.1684790e-03 -9.8712975e-04 1.6383236e-04 
5.6489510e-03 -3.0953749e-03 6.9907698e-04 
5.5462737e-03 -4.2521041e-03 4.3236330e-04 
5.6177692e-04 -1.1554813e-03 4.6645644e-05 
0.0000000e+00 0.0000000e+00 0.0000000e+00 
7.2714803e-04 -6.1100820e-04 1.1207908e-04 
-1.2693814e-09 -3.3048625e-10 8.0788204e-10 
7.0069684e-03 -3.3758504e-03 8.8797061e-04 
0.0000000e+00 0.0000000e+00 0.0000000e+00 
1.8062562e-02 1.3215373e-03 4.9824771e-03 
6.9264169e-03 -4.6126689e-03 5.8855920e-04 
2.5903003e-04 -7.2587136e-04 3.4675908e-05 
1.4900559e-02 1.0538427e-02 1.0993417e-02 
1.3929118e-02 1.2012964e-02 1.2053533e-02 
1.8327987e-02 3.5717821e-06 4.3042926e-03 
1.7441796e-02 7.9816906e-03 9.3244435e-03 
1.1272634e-02 1.2176373e-02 1.1976514e-02 
1.8486779e-02 5.3915647e-03 7.6214308e-03 
4.0825416e-04 -3.0110302e-04 7.0703747e-05 
8.4936256e-03 -3.5456540e-03 1.1123341e-03 
1.0317144e-02 1.3639150e-02 1.3076830e-02 
7.2544914e-05 -3.7493659e-04 2.5770647e-05 
8.4364088e-03 -4.8606372e-03 7.8026322e-04 
1.9159001e-04 -7.3662908e-05 3.7639147e-05 
1.8494988e-02 6.5361634e-03 8.3951298e-03 
1.0088379e-02 -3.5806806e-03 1.3744491e-03 
-7.7748981e-09 1.6796744e-09 -5.4611399e-11 
0.0000000e+00 0.0000000e+00 0.0000000e+00 
-4.7704493e-06 -1.2449647e-04 1.5685018e-05 
1.0063932e-02 -4.9816170e-03 1.0108455e-03 
1.7453708e-02 9.1931233e-03 1.0192068e-02 
1.8945741e-02 2.2368515e-03 5.6182314e-03 
1.9279543e-02 8.9746068e-04 4.8990198e-03 
2.9383303e-08 -8.8182057e-09 7.0432273e-09 
1.4868340e-02 1.1779738e-02 1.1945773e-02 
4.9366572e-05 1.8445040e-05 1.1623923e-05 
0.0000000e+00 0.0000000e+00 0.0000000e+00 
1.8481214e-02 7.7259853e-03 9.2159146e-03 
1.1730607e-02 -3.5141574e-03 1.6773149e-03 
1.3927770e-02 1.3260314e-02 1.3056459e-02 
0.0000000e+00 0.0000000e+00 0.0000000e+00 
1.1722135e-02 -4.9016238e-03 1.2803182e-03 
1.1224729e-02 1.3412230e-02 1.2972672e-02 
1.9595040e-05 -3.6070583e-06 3.4627280e-06 
-1.6147841e-09 5.1720256e-10 4.9743792e-10 
0.0000000e+00 0.0000000e+00 0.0000000e+00 
1.7466541e-02 1.0423685e-02 1.1102978e-02 
1.0301506e-02 1.4882500e-02 1.4124867e-02 
1.9724254e-02 3.2153190e-03 6.2883343e-03 
0.0000000e+00 0.0000000e+00 0.0000000e+00 
1.3331407e-02 -3.2939129e-03 2.0220783e-03 
1.3349956e-02 -4.6760016e-03 1.5892599e-03 
2.0135030e-02 1.8559485e-03 5.5306153e-03 
1.8464910e-02 8.9437729e-03 1.0079130e-02 
-3.7934336e-10 -1.1928043e-10 2.6348421e-10 
0.0000000e+00 0.0000000e+00 0.0000000e+00 
8.3382165e-06 -1.5429168e-06 1.1289353e-06 
1.4835494e-02 1.3034985e-02 1.2945370e-02 
0.0000000e+00 0.0000000e+00 0.0000000e+00 
1.4879872e-02 -2.9280682e-03 2.4096293e-03 
1.4928752e-02 -4.3144175e-03 1.9389021e-03 
9.9199333e-09 -3.0500247e-09 2.4051727e-09 
1.3926816e-02 1.4518836e-02 1.4106617e-02 
2.0394746e-02 4.2462647e-03 6.9893361e-03 
0.0000000e+00 0.0000000e+00 0.0000000e+00 
1.1179597e-02 1.4663610e-02 1.4016984e-02 
1.8446624e-02 1.0181762e-02 1.0986762e-02 
1.7479630e-02 1.1668898e-02 1.2058733e-02 
2.0891046e-02 2.8700337e-03 6.1964327e-03 
3.4174891e-06 -6.5484920e-07 3.9696144e-07 
0.0000000e+00 0.0000000e+00 0.0000000e+00 
1.6362181e-02 -2.4259919e-03 2.8405890e-03 
1.6446264e-02 -3.8224885e-03 2.3299346e-03 
1.0288460e-02 1.6139498e-02 1.5220815e-02 
-2.8747347e-09 6.4610239e-10 -1.9075068e-11 
0.0000000e+00 0.0000000e+00 0.0000000e+00 
2.0961663e-02 5.2842959e-03 7.7144876e-03 
1.4803401e-02 1.4301420e-02 1.3992873e-02 
1.3483501e-06 -2.6855784e-07 1.4507654e-07 
2.1545283e-02 3.9308555e-03 6.8930676e-03 
1.8426983e-02 1.1434991e-02 1.1940027e-02 
1.7764010e-02 -1.7986097e-03 3.3149887e-03 
0.0000000e+00 0.0000000e+00 0.0000000e+00 
1.7889446e-02 -3.2083141e-03 2.7626606e-03 
1.7492412e-02 1.2925641e-02 1.3060675e-02 
2.0967932e-02 6.4591905e-03 8.5085165e-03 
1.3926146e-02 1.5787713e-02 1.5204849e-02 
1.1137908e-02 1.5928280e-02 1.5109980e-02 
-5.9928673e-10 1.9348251e-10 1.8660758e-10 
0.0000000e+00 0.0000000e+00 0.0000000e+00 
-1.0960043e-10 -4.2364629e-11 8.3285753e-11 
0.0000000e+00 0.0000000e+00 0.0000000e+00 
3.2280620e-09 -1.0151691e-09 7.9375156e-10 
0.0000000e+00 0.0000000e+00 0.0000000e+00 
1.9072125e-02 -1.0583838e-03 3.8322399e-03 
2.0987300e-02 7.6699639e-03 9.3371477e-03 
2.2059519e-02 5.0076954e-03 7.6178713e-03 
1.9245954e-02 -2.4822659e-03 3.2370461e-03 
5.1179086e-07 -1.0608886e-07 5.3351318e-08 
0.0000000e+00 0.0000000e+00 0.0000000e+00 
1.8406760e-02 1.2699927e-02 1.2940003e-02 
2.2062140e-02 6.1947671e-03 8.3948029e-03 
1.4773103e-02 1.5577902e-02 1.5088955e-02 
1.0277591e-02 1.7409790e-02 1.6365422e-02 
1.7504493e-02 1.4192127e-02 1.4109944e-02 
2.1006785e-02 8.8968230e-03 1.0206248e-02 
2.0275366e-02 -2.1892603e-04 4.3911287e-03 
2.0505136e-02 -1.6563728e-03 3.7526735e-03 
2.2045892e-02 7.4117170e-03 9.2175603e-03 
1.8685991e-07 -4.0278593e-08 1.9336337e-08 
0.0000000e+00 0.0000000e+00 0.0000000e+00 
1.1100252e-02 1.7205697e-02 1.6252216e-02 
1.3925735e-02 1.7067431e-02 1.6351901e-02 
2.1026317e-02 1.0137305e-02 1.1117666e-02 
1.8386701e-02 1.3974458e-02 1.3987667e-02 
2.1365104e-02 7.0555223e-04 4.9898084e-03 
2.2029441e-02 8.6464323e-03 1.0082616e-02 
2.1658523e-02 -7.4361527e-04 4.3086642e-03 
-1.0395284e-09 2.4239644e-10 -6.7653491e-12 
0.0000000e+00 0.0000000e+00 0.0000000e+00 
1.0127411e-09 -3.2530398e-10 2.5306315e-10 
0.0000000e+00 0.0000000e+00 0.0000000e+00 
1.7515635e-02 1.5467839e-02 1.5207508e-02 
1.4745407e-02 1.6864685e-02 1.6234249e-02 
-3.0824315e-11 -1.4779343e-11 2.5541281e-11 
0.0000000e+00 0.0000000e+00 0.0000000e+00 
2.2335313e-02 1.7007645e-03 5.6257886e-03 
2.2013027e-02 9.8952046e-03 1.0991277e-02 
2.1045616e-02 1.1389036e-02 1.2073164e-02 
2.2699960e-02 2.4272595e-04 4.9036038e-03 
6.5622608e-08 -1.4696910e-08 6.8310628e-09 
-2.1756193e-10 7.0852782e-11 6.8337003e-11 
1.0268697e-02 1.8694445e-02 1.7559329e-02 
0.0000000e+00 0.0000000e+00 0.0000000e+00 
0.0000000e+00 0.0000000e+00 0.0000000e+00 
3.0807746e-03 -3.6130154e-03 1.4134834e-04 
3.2677057e-03 -2.5118205e-03 3.1039445e-04 
2.1375457e-03 -2.9255755e-03 9.3872324e-05 
4.2044111e-03 -4.2746468e-03 2.1031500e-04 
4.3686768e-03 -3.0791701e-03 4.1321214e-04 
2.3422565e-03 -1.9314801e-03 2.2871059e-04 
5.6397524e-03 -3.6006691e-03 5.4117735e-04 
5.5008219e-03 -4.8791408e-03 3.0514156e-04 
1.3761462e-03 -2.2443335e-03 6.3224645e-05 
1.5909692e-03 -1.3708753e-03 1.6419910e-04 
7.0693800e-03 -4.0447218e-03 6.9817028e-04 
6.9568991e-03 -5.3974041e-03 4.2974835e-04 
7.9184590e-04 -1.6004292e-03 4.4652144e-05 
1.8367479e-02 1.5257813e-02 1.5083893e-02 
1.0057711e-03 -8.6145994e-04 1.1316437e-04 
8.6411713e-03 -4.3822564e-03 8.8778039e-04 
2.3182338e-02 2.7527227e-03 6.2959394e-03 
8.5554626e-03 -5.8038072e-03 5.8752327e-04 
3.7461304e-04 -1.0230006e-03 3.3533237e-05 
1.1067168e-02 1.8496778e-02 1.7444193e-02 
2.3625450e-02 1.2895750e-03 5.5354829e-03 
1.3925627e-02 1.8359659e-02 1.7548403e-02 
2.1996735e-02 1.1155401e-02 1.1944878e-02 
5.7254301e-04 -4.3294995e-04 7.2431911e-05 
1.0335674e-02 -4.5875437e-03 1.1131336e-03 
2.1064337e-02 1.2650238e-02 1.3074315e-02 
1.1057726e-04 -5.3886481e-04 2.5532147e-05 
1.0277234e-02 -6.0768682e-03 7.8142015e-04 
2.7168961e-04 -1.1327192e-04 3.9842620e-05 
1.7525727e-02 1.6753441e-02 1.6354175e-02 
1.2130076e-02 -4.6377615e-03 1.3761591e-03 
3.0641839e-10 -1.0042525e-10 7.8001952e-11 
0.0000000e+00 0.0000000e+00 0.0000000e+00 