# vtk DataFile Version 4.0
vtk output
ASCII
DATASET UNSTRUCTURED_GRID
POINTS 2524 float
-1.3600737e-02 9.2723727e-02 1.0000000e-01 
-1.1117464e-02 9.2369959e-02 1.0000000e-01 
-1.4838499e-02 9.0371020e-02 1.0000000e-01 
-1.2160867e-02 9.4958462e-02 1.0000000e-01 
-1.2428896e-02 9.0104103e-02 1.0000000e-01 
-9.5961727e-03 9.4500601e-02 1.0000000e-01 
-1.3518542e-02 8.7723628e-02 1.0000000e-01 
-1.5864562e-02 8.7918580e-02 1.0000000e-01 
-1.0530048e-02 9.7057916e-02 1.0000000e-01 
-7.8788539e-03 9.6476652e-02 1.0000000e-01 
-1.4376495e-02 8.5250191e-02 1.0000000e-01 
-1.6670976e-02 8.5385412e-02 1.0000000e-01 
-8.7209158e-03 9.9005811e-02 1.0000000e-01 
-5.9811245e-03 9.8280147e-02 1.0000000e-01 
-1.4994953e-02 8.2706288e-02 1.0000000e-01 
-1.7251492e-02 8.2791135e-02 1.0000000e-01 
-6.7474889e-03 1.0078707e-01 1.0000000e-01 
-3.9202408e-03 9.9894680e-02 1.0000000e-01 
-1.3600737e-02 9.2723727e-02 8.7499991e-02 
-1.5368291e-02 8.0115035e-02 1.0000000e-01 
-1.1117464e-02 9.2369959e-02 8.7499991e-02 
-1.2160867e-02 9.4958462e-02 8.7499991e-02 
-1.4838499e-02 9.0371020e-02 8.7499991e-02 
-1.2428894e-02 9.0104103e-02 8.7499991e-02 
-1.7601609e-02 8.0155857e-02 1.0000000e-01 
-4.6250601e-03 1.0238787e-01 1.0000000e-01 
-9.5961727e-03 9.4500601e-02 8.7499991e-02 
-1.3518536e-02 8.7723650e-02 8.7499991e-02 
-1.0530052e-02 9.7057909e-02 8.7499991e-02 
-1.5864562e-02 8.7918587e-02 8.7499991e-02 
-7.8788549e-03 9.6476652e-02 8.7499991e-02 
-1.4376482e-02 8.5250244e-02 8.7499991e-02 
-1.7149430e-03 1.0130557e-01 1.0000000e-01 
-8.7209288e-03 9.9005796e-02 8.7499991e-02 
-1.6670974e-02 8.5385419e-02 8.7499991e-02 
-1.5493116e-02 7.7500008e-02 1.0000000e-01 
-5.9811310e-03 9.8280139e-02 8.7499991e-02 
-1.7718617e-02 7.7499993e-02 1.0000000e-01 
-2.3700756e-03 1.0379581e-01 1.0000000e-01 
-1.4994934e-02 8.2706384e-02 8.7499991e-02 
-6.7475229e-03 1.0078704e-01 8.7499991e-02 
-1.7251486e-02 8.2791157e-02 8.7499991e-02 
6.1471661e-04 1.0250000e-01 1.0000000e-01 
-3.9202627e-03 9.9894665e-02 8.7499991e-02 
-1.5368290e-02 8.0115050e-02 8.7499991e-02 
-1.5368292e-02 7.4884973e-02 1.0000000e-01 
-4.6251309e-03 1.0238782e-01 8.7499991e-02 
-1.7601604e-02 8.0155902e-02 8.7499991e-02 
-1.7601607e-02 7.4844137e-02 1.0000000e-01 
-0.0000000e+00 1.0500000e-01 1.0000000e-01 
-1.7149959e-03 1.0130554e-01 8.7499991e-02 
3.2798690e-03 1.0250000e-01 1.0000000e-01 
-1.5493116e-02 7.7499904e-02 8.7499991e-02 
-2.3702064e-03 1.0379574e-01 8.7499991e-02 
-1.7718617e-02 7.7500083e-02 8.7499991e-02 
2.6781005e-03 1.0500000e-01 1.0000000e-01 
-1.4994955e-02 7.2293721e-02 1.0000000e-01 
-1.7251490e-02 7.2208859e-02 1.0000000e-01 
6.1471661e-04 1.0250000e-01 8.7499991e-02 
-1.5368287e-02 7.4884921e-02 8.7499991e-02 
6.0768481e-03 1.0250000e-01 1.0000000e-01 
-0.0000000e+00 1.0500000e-01 8.7499991e-02 
-1.7601607e-02 7.4844129e-02 8.7499991e-02 
5.4879682e-03 1.0500000e-01 1.0000000e-01 
-1.4376498e-02 6.9749817e-02 1.0000000e-01 
3.2798694e-03 1.0250000e-01 8.7499991e-02 
-1.6670974e-02 6.9614582e-02 1.0000000e-01 
2.6781012e-03 1.0500000e-01 8.7499991e-02 
-1.4994950e-02 7.2293699e-02 8.7499991e-02 
-1.7251475e-02 7.2208777e-02 8.7499991e-02 
9.0098707e-03 1.0250000e-01 1.0000000e-01 
-1.3600737e-02 9.2723727e-02 7.4999996e-02 
-1.1117464e-02 9.2369959e-02 7.4999996e-02 
-1.2160868e-02 9.4958462e-02 7.4999996e-02 
-1.4838499e-02 9.0371020e-02 7.4999996e-02 
-1.2428894e-02 9.0104103e-02 7.4999996e-02 
8.4337983e-03 1.0500000e-01 1.0000000e-01 
6.0768486e-03 1.0250000e-01 8.7499991e-02 
-9.5961727e-03 9.4500601e-02 7.4999996e-02 
-1.3518546e-02 6.7276381e-02 1.0000000e-01 
-1.3518536e-02 8.7723643e-02 7.4999996e-02 
-1.0530052e-02 9.7057909e-02 7.4999996e-02 
-1.5864560e-02 8.7918587e-02 7.4999996e-02 
-1.5864560e-02 6.7081414e-02 1.0000000e-01 
5.4879687e-03 1.0500000e-01 8.7499991e-02 
-7.8788558e-03 9.6476652e-02 7.4999996e-02 
-1.4376483e-02 8.5250236e-02 7.4999996e-02 
-1.4376496e-02 6.9749802e-02 8.7499991e-02 
-8.7209279e-03 9.9005796e-02 7.4999996e-02 
-1.6670972e-02 8.5385419e-02 7.4999996e-02 
-1.6670963e-02 6.9614545e-02 8.7499991e-02 
-5.9811347e-03 9.8280132e-02 7.4999996e-02 
-1.4994935e-02 8.2706377e-02 7.4999996e-02 
-6.7475205e-03 1.0078704e-01 7.4999996e-02 
-1.7251484e-02 8.2791165e-02 7.4999996e-02 
1.2083010e-02 1.0250000e-01 1.0000000e-01 
9.0098716e-03 1.0250000e-01 8.7499991e-02 
-3.9202701e-03 9.9894658e-02 7.4999996e-02 
-1.2428899e-02 6.4895906e-02 1.0000000e-01 
1.1519642e-02 1.0500000e-01 1.0000000e-01 
-1.5368290e-02 8.0115058e-02 7.4999996e-02 
-1.4838495e-02 6.4628974e-02 1.0000000e-01 
8.4337983e-03 1.0500000e-01 8.7499991e-02 
-4.6251258e-03 1.0238782e-01 7.4999996e-02 
-1.7601606e-02 8.0155894e-02 7.4999996e-02 
-1.3518546e-02 6.7276374e-02 8.7499991e-02 
-1.5864553e-02 6.7081392e-02 8.7499991e-02 
-1.7150094e-03 1.0130554e-01 7.4999996e-02 
-1.5493116e-02 7.7499934e-02 7.4999996e-02 
-2.3701969e-03 1.0379574e-01 7.4999996e-02 
-1.7718617e-02 7.7500060e-02 7.4999996e-02 
1.2083010e-02 1.0250000e-01 8.7499991e-02 
-1.1117469e-02 6.2630050e-02 1.0000000e-01 
6.1471661e-04 1.0250000e-01 7.4999996e-02 
-1.3600733e-02 6.2276267e-02 1.0000000e-01 
1.5300166e-02 1.0250000e-01 1.0000000e-01 
-1.2428900e-02 6.4895906e-02 8.7499991e-02 
1.1519643e-02 1.0500000e-01 8.7499991e-02 
-1.5368288e-02 7.4884929e-02 7.4999996e-02 
-1.4838492e-02 6.4628966e-02 8.7499991e-02 
1.4749384e-02 1.0500000e-01 1.0000000e-01 
-0.0000000e+00 1.0500000e-01 7.4999996e-02 
-1.7601607e-02 7.4844122e-02 7.4999996e-02 
3.2798708e-03 1.0250000e-01 7.4999996e-02 
2.6781023e-03 1.0500000e-01 7.4999996e-02 
-1.4994948e-02 7.2293691e-02 7.4999996e-02 
-9.5961774e-03 6.0499407e-02 1.0000000e-01 
-1.7251475e-02 7.2208785e-02 7.4999996e-02 
-1.1117470e-02 6.2630050e-02 8.7499991e-02 
-1.2160863e-02 6.0041532e-02 1.0000000e-01 
-1.3600732e-02 6.2276267e-02 8.7499991e-02 
1.5300167e-02 1.0250000e-01 8.7499991e-02 
6.0768500e-03 1.0250000e-01 7.4999996e-02 
1.4749384e-02 1.0500000e-01 8.7499991e-02 
1.8665034e-02 1.0250000e-01 1.0000000e-01 
5.4879701e-03 1.0500000e-01 7.4999996e-02 
-1.4376494e-02 6.9749802e-02 7.4999996e-02 
1.8126702e-02 1.0500000e-01 1.0000000e-01 
-1.6670963e-02 6.9614545e-02 7.4999996e-02 
-7.8788595e-03 5.8523357e-02 1.0000000e-01 
-9.5961811e-03 6.0499411e-02 8.7499991e-02 
-1.0530042e-02 5.7942081e-02 1.0000000e-01 
-1.2160863e-02 6.0041532e-02 8.7499991e-02 
9.0098726e-03 1.0250000e-01 7.4999996e-02 
8.4338002e-03 1.0500000e-01 7.4999996e-02 
-1.3518545e-02 6.7276374e-02 7.4999996e-02 
-1.5864553e-02 6.7081392e-02 7.4999996e-02 
1.8665034e-02 1.0250000e-01 8.7499991e-02 
1.8126702e-02 1.0500000e-01 8.7499991e-02 
-5.9811305e-03 5.6719862e-02 1.0000000e-01 
-7.8788726e-03 5.8523368e-02 8.7499991e-02 
-8.7209092e-03 5.5994183e-02 1.0000000e-01 
-1.0530042e-02 5.7942081e-02 8.7499991e-02 
2.2181055e-02 1.0250000e-01 1.0000000e-01 
1.2083011e-02 1.0250000e-01 7.4999996e-02 
2.1655027e-02 1.0500000e-01 1.0000000e-01 
-1.2428900e-02 6.4895906e-02 7.4999996e-02 
-1.3600738e-02 9.2723727e-02 6.2499993e-02 
1.1519643e-02 1.0500000e-01 7.4999996e-02 
-1.1117464e-02 9.2369959e-02 6.2499993e-02 
-1.2160869e-02 9.4958462e-02 6.2499993e-02 
-1.4838499e-02 9.0371020e-02 6.2499993e-02 
-1.2428895e-02 9.0104103e-02 6.2499993e-02 
-1.4838493e-02 6.4628966e-02 7.4999996e-02 
-9.5961727e-03 9.4500601e-02 6.2499993e-02 
-1.3518537e-02 8.7723643e-02 6.2499993e-02 
-1.0530052e-02 9.7057909e-02 6.2499993e-02 
-1.5864560e-02 8.7918587e-02 6.2499993e-02 
-7.8788577e-03 9.6476644e-02 6.2499993e-02 
-1.4376485e-02 8.5250229e-02 6.2499993e-02 
-1.6670970e-02 8.5385427e-02 6.2499993e-02 
-8.7209269e-03 9.9005803e-02 6.2499993e-02 
-5.9811398e-03 9.8280132e-02 6.2499993e-02 
-1.4994938e-02 8.2706362e-02 6.2499993e-02 
-3.9202473e-03 5.5105329e-02 1.0000000e-01 
-5.9811682e-03 5.6719895e-02 8.7499991e-02 
-1.7251484e-02 8.2791172e-02 6.2499993e-02 
-6.7475168e-03 1.0078704e-01 6.2499993e-02 
-8.7209111e-03 5.5994183e-02 8.7499991e-02 
-6.7474819e-03 5.4212932e-02 1.0000000e-01 
2.2181056e-02 1.0250000e-01 8.7499991e-02 
-1.1117470e-02 6.2630050e-02 7.4999996e-02 
2.1655027e-02 1.0500000e-01 8.7499991e-02 
-3.9202808e-03 9.9894650e-02 6.2499993e-02 
-1.3600732e-02 6.2276267e-02 7.4999996e-02 
1.5300168e-02 1.0250000e-01 7.4999996e-02 
-1.5368289e-02 8.0115065e-02 6.2499993e-02 
1.4749385e-02 1.0500000e-01 7.4999996e-02 
-4.6251179e-03 1.0238782e-01 6.2499993e-02 
-1.7601606e-02 8.0155887e-02 6.2499993e-02 
-1.7150288e-03 1.0130552e-01 6.2499993e-02 
-1.5493116e-02 7.7499963e-02 6.2499993e-02 
2.5851376e-02 1.0250000e-01 1.0000000e-01 
-2.3701836e-03 1.0379575e-01 6.2499993e-02 
-1.7718617e-02 7.7500030e-02 6.2499993e-02 
-1.7149500e-03 5.3694431e-02 1.0000000e-01 
-3.9203316e-03 5.5105384e-02 8.7499991e-02 
2.5337499e-02 1.0500000e-01 1.0000000e-01 
-9.5961811e-03 6.0499411e-02 7.4999996e-02 
-6.7474898e-03 5.4212935e-02 8.7499991e-02 
-4.6250527e-03 5.2612130e-02 1.0000000e-01 
-1.2160863e-02 6.0041532e-02 7.4999996e-02 
6.1471661e-04 1.0250000e-01 6.2499993e-02 
-1.5368289e-02 7.4884936e-02 6.2499993e-02 
-0.0000000e+00 1.0500000e-01 6.2499993e-02 
-1.7601606e-02 7.4844114e-02 6.2499993e-02 
1.8665036e-02 1.0250000e-01 7.4999996e-02 
1.8126704e-02 1.0500000e-01 7.4999996e-02 
3.2798727e-03 1.0250000e-01 6.2499993e-02 
2.5851376e-02 1.0250000e-01 8.7499991e-02 
6.1471661e-04 5.2499998e-02 1.0000000e-01 
-1.7151133e-03 5.3694524e-02 8.7499991e-02 
2.6781042e-03 1.0500000e-01 6.2499993e-02 
2.5337499e-02 1.0500000e-01 8.7499991e-02 
-1.4994946e-02 7.2293676e-02 6.2499993e-02 
-7.8788716e-03 5.8523368e-02 7.4999996e-02 
-1.7251477e-02 7.2208792e-02 6.2499993e-02 
-1.0530043e-02 5.7942081e-02 7.4999996e-02 
-4.6250741e-03 5.2612145e-02 8.7499991e-02 
-2.3700679e-03 5.1204182e-02 1.0000000e-01 
6.0768514e-03 1.0250000e-01 6.2499993e-02 
3.2995713e-03 5.2499998e-02 1.0000000e-01 
5.4879719e-03 1.0500000e-01 6.2499993e-02 
-1.4376492e-02 6.9749795e-02 6.2499993e-02 
-1.6670965e-02 6.9614552e-02 6.2499993e-02 
2.9678803e-02 1.0250000e-01 1.0000000e-01 
[...]
POINT_DATA 2524
FIELD FieldData 1
DISPLACEMENT 3 2524  float
2.8709185e-03 -3.2561477e-03 -7.1766386e-05 
2.9839803e-03 -2.4139555e-03 -1.7638913e-04 
3.7161717e-03 -3.7313476e-03 -1.1243371e-04 
2.1107045e-03 -2.7312771e-03 -4.4257675e-05 
3.8040781e-03 -2.8738568e-03 -2.3061132e-04 
2.2473624e-03 -1.9243036e-03 -1.3427487e-04 
4.6903817e-03 -3.2818844e-03 -2.9944602e-04 
4.6266825e-03 -4.1397382e-03 -1.6861792e-04 
1.4531071e-03 -2.1794490e-03 -2.7249480e-05 
1.6082642e-03 -1.4317872e-03 -1.0162011e-04 
5.6245131e-03 -3.6210748e-03 -3.8522697e-04 
5.5825375e-03 -4.4700704e-03 -2.4232014e-04 
9.1167173e-04 -1.6281644e-03 -1.7819559e-05 
1.0758566e-03 -9.6697878e-04 -7.5634605e-05 
6.5894178e-03 -3.8790884e-03 -4.9011223e-04 
6.5659550e-03 -4.7168317e-03 -3.3509772e-04 
4.9436901e-04 -1.1086263e-03 -1.2781089e-05 
6.5375568e-04 -5.6247931e-04 -5.3201315e-05 
2.3911702e-03 -2.8081962e-03 -1.0191297e-04 
7.5722812e-03 -4.0462776e-03 -6.1603234e-04 
2.4937105e-03 -2.0270140e-03 -1.9214954e-04 
1.7144562e-03 -2.3362441e-03 -7.3850300e-05 
3.1529323e-03 -3.2342977e-03 -1.4207346e-04 
3.2324889e-03 -2.4373590e-03 -2.4521342e-04 
7.5637363e-03 -4.8795859e-03 -4.4804715e-04 
2.0204498e-04 -6.5466744e-04 -8.6410864e-06 
1.8394483e-03 -1.5881928e-03 -1.5042894e-04 
4.0390668e-03 -2.7984467e-03 -3.1220148e-04 
1.1389988e-03 -1.8399119e-03 -5.5255688e-05 
3.9811255e-03 -3.5979864e-03 -1.9673975e-04 
1.2829072e-03 -1.1461100e-03 -1.1732683e-04 
4.8951511e-03 -3.0945351e-03 -3.9548930e-04 
3.4097023e-04 -2.4963368e-04 -2.9740977e-05 
6.7712413e-04 -1.3446229e-03 -4.3333683e-05 
4.8565273e-03 -3.8880818e-03 -2.6803729e-04 
8.5819019e-03 -4.1152448e-03 -7.5996219e-04 
8.3212263e-04 -7.2941440e-04 -9.0048881e-05 
8.5599339e-03 -4.9503800e-03 -5.8479910e-04 
2.5966416e-05 -3.0311637e-04 -1.8399755e-06 
5.7829521e-03 -3.3149349e-03 -4.9721095e-04 
3.3642017e-04 -8.7838917e-04 -3.5177694e-05 
5.7612555e-03 -4.0987870e-03 -3.5767653e-04 
9.2610833e-05 1.2095613e-05 -5.2347345e-06 
4.8861245e-04 -3.6909649e-04 -6.5831417e-05 
6.6873315e-03 -3.4533292e-03 -6.1940303e-04 
9.5896991e-03 -4.0577878e-03 -9.2474947e-04 
1.1991643e-04 -4.7006182e-04 -2.7770109e-05 
6.6809524e-03 -4.2294580e-03 -4.6616755e-04 
9.5768934e-03 -4.9060634e-03 -7.3767238e-04 
0.0000000e+00 0.0000000e+00 0.0000000e+00 
2.4599992e-04 -9.7601776e-05 -4.2152267e-05 
4.6339028e-05 1.3151976e-06 -1.2224715e-09 
7.5967186e-03 -3.5060034e-03 -7.6574378e-04 
2.6223735e-05 -1.4506689e-04 -1.7418699e-05 
7.6003792e-03 -4.2813946e-03 -5.8700430e-04 
0.0000000e+00 0.0000000e+00 0.0000000e+00 
1.0608359e-02 -3.9037950e-03 -1.1102327e-03 
1.0613416e-02 -4.7750296e-03 -9.0698560e-04 
7.9828897e-05 2.1825552e-05 -1.0584558e-05 
8.5175596e-03 -3.4579928e-03 -9.2801283e-04 
2.0516845e-05 -5.6715669e-07 6.9325563e-07 
0.0000000e+00 0.0000000e+00 0.0000000e+00 
8.5327113e-03 -4.2536911e-03 -7.3257415e-04 
0.0000000e+00 0.0000000e+00 0.0000000e+00 
1.1626973e-02 -3.6565012e-03 -1.3165277e-03 
2.4477125e-05 -9.1324282e-06 -1.8698714e-06 
1.1652910e-02 -4.5534302e-03 -1.0951094e-03 
0.0000000e+00 0.0000000e+00 0.0000000e+00 
9.4532380e-03 -3.3206423e-03 -1.1111584e-03 
9.4839288e-03 -4.1402471e-03 -8.9902611e-04 
9.0363446e-06 -7.2292903e-07 4.0623414e-07 
1.9871658e-03 -2.3323759e-03 -8.0554550e-05 
2.0647089e-03 -1.6440530e-03 -1.7217793e-04 
1.4035967e-03 -1.9239004e-03 -5.1871823e-05 
2.6511790e-03 -2.7045782e-03 -1.2102370e-04 
2.7090986e-03 -1.9962224e-03 -2.2828081e-04 
0.0000000e+00 0.0000000e+00 0.0000000e+00 
9.6596405e-06 -2.5264087e-06 -4.7751070e-07 
1.4996465e-03 -1.2725191e-03 -1.2724048e-04 
1.2628440e-02 -3.3202597e-03 -1.5445020e-03 
3.4184780e-03 -2.3092302e-03 -2.9768544e-04 
9.1394328e-04 -1.4994495e-03 -3.2773431e-05 
3.3793831e-03 -3.0243520e-03 -1.7527412e-04 
1.2678824e-02 -4.2397506e-03 -1.3032507e-03 
0.0000000e+00 0.0000000e+00 0.0000000e+00 
1.0245171e-03 -9.0502651e-04 -9.1293965e-05 
4.1763526e-03 -2.5676582e-03 -3.8238990e-04 
1.0390519e-02 -3.0933979e-03 -1.3156279e-03 
5.2753068e-04 -1.0825669e-03 -2.0942471e-05 
4.1542836e-03 -3.2800653e-03 -2.4500431e-04 
1.0439326e-02 -3.9376584e-03 -1.0859442e-03 
6.4490904e-04 -5.6739763e-04 -6.2288214e-05 
4.9656476e-03 -2.7607698e-03 -4.8420535e-04 
2.4850370e-04 -6.9880293e-04 -1.4052634e-05 
4.9585989e-03 -3.4643307e-03 -3.3151102e-04 
3.9303982e-06 -4.2705861e-07 1.6984376e-07 
3.6982408e-06 -1.0510200e-06 -1.6191719e-07 
3.6064183e-04 -2.8639036e-04 -3.8579958e-05 
1.3593543e-02 -2.9024514e-03 -1.7947527e-03 
0.0000000e+00 0.0000000e+00 0.0000000e+00 
5.7699382e-03 -2.8825521e-03 -6.0477358e-04 
1.3671972e-02 -3.8375657e-03 -1.5323246e-03 
0.0000000e+00 0.0000000e+00 0.0000000e+00 
7.5059230e-05 -3.7432089e-04 -9.8990240e-06 
5.7762219e-03 -3.5728426e-03 -4.3558946e-04 
1.1312157e-02 -2.7788517e-03 -1.5420089e-03 
1.1382423e-02 -3.6450927e-03 -1.2936423e-03 
1.6616943e-04 -8.8399109e-05 -1.9519368e-05 
6.5731341e-03 -2.9320482e-03 -7.4541150e-04 
-5.5424057e-06 -1.3047317e-04 -6.3125003e-06 
6.5945024e-03 -3.6038763e-03 -5.5831205e-04 
1.4031124e-06 -4.3161404e-07 -7.0693382e-08 
1.4503339e-02 -2.4140573e-03 -2.0675343e-03 
5.8453599e-05 1.9551684e-05 -9.6544700e-06 
1.4612972e-02 -3.3552758e-03 -1.7830142e-03 
1.6783749e-06 -2.1547108e-07 6.0470150e-08 
1.2199542e-02 -2.3833986e-03 -1.7906725e-03 
0.0000000e+00 0.0000000e+00 0.0000000e+00 
7.3913573e-03 -2.8787935e-03 -9.0773962e-04 
1.2294931e-02 -3.2661944e-03 -1.5225274e-03 
0.0000000e+00 0.0000000e+00 0.0000000e+00 
0.0000000e+00 0.0000000e+00 0.0000000e+00 
7.4211494e-03 -3.5869165e-03 -7.0384773e-04 
2.4435563e-05 -1.9138229e-06 -2.1119188e-06 
0.0000000e+00 0.0000000e+00 0.0000000e+00 
8.2312934e-03 -2.7484901e-03 -1.0919307e-03 
1.5341153e-02 -1.8691791e-03 -2.3627549e-03 
8.2747284e-03 -3.4860177e-03 -8.6949271e-04 
1.3034644e-02 -1.9172615e-03 -2.0617021e-03 
1.5484309e-02 -2.8054656e-03 -2.0557293e-03 
1.3158714e-02 -2.8089813e-03 -1.7728936e-03 
5.3035956e-07 -1.7292079e-07 -3.4799594e-08 
1.0323423e-05 -1.1571692e-06 -5.2674267e-07 
0.0000000e+00 0.0000000e+00 0.0000000e+00 
7.0212280e-07 -1.0154703e-07 1.9207031e-08 
0.0000000e+00 0.0000000e+00 0.0000000e+00 
9.0775099e-03 -2.5376095e-03 -1.2983265e-03 
0.0000000e+00 0.0000000e+00 0.0000000e+00 
9.1373529e-03 -3.3015835e-03 -1.0563913e-03 
1.6094068e-02 -1.2838881e-03 -2.6799988e-03 
1.3801750e-02 -1.3938596e-03 -2.3548414e-03 
1.6271966e-02 -2.2038145e-03 -2.3505704e-03 
1.3957492e-02 -2.2852987e-03 -2.0448132e-03 
4.2047227e-06 -5.1058532e-07 -1.3530875e-07 
0.0000000e+00 0.0000000e+00 0.0000000e+00 
9.9127376e-03 -2.2473289e-03 -1.5273190e-03 
9.9921208e-03 -3.0339379e-03 -1.2649159e-03 
2.0029758e-07 -6.7950054e-08 -1.7560120e-08 
0.0000000e+00 0.0000000e+00 0.0000000e+00 
1.6753726e-02 -6.7465549e-04 -3.0185943e-03 
1.4488787e-02 -8.2871242e-04 -2.6694441e-03 
1.6966533e-02 -1.5676651e-03 -2.6672999e-03 
1.4678214e-02 -1.7098258e-03 -2.3380602e-03 
2.8749540e-07 -4.5737924e-08 5.5229932e-09 
1.6440728e-06 -2.1388801e-07 -3.6963804e-08 
0.0000000e+00 0.0000000e+00 0.0000000e+00 
1.0719250e-02 -1.8828794e-03 -1.7790119e-03 
1.5820130e-03 -1.8543430e-03 -8.1120728e-05 
0.0000000e+00 0.0000000e+00 0.0000000e+00 
1.6436573e-03 -1.2774202e-03 -1.7010748e-04 
1.0995163e-03 -1.5125604e-03 -5.3096450e-05 
2.1395402e-03 -2.1700098e-03 -1.2082977e-04 
2.1853747e-03 -1.5687951e-03 -2.2675977e-04 
1.0821451e-02 -2.6866179e-03 -1.4952339e-03 
1.1755137e-03 -9.7506342e-04 -1.2472142e-04 
2.7888934e-03 -1.8311645e-03 -2.9669551e-04 
7.0228172e-04 -1.1632233e-03 -3.4538825e-05 
2.7586352e-03 -2.4440878e-03 -1.7423624e-04 
7.8879262e-04 -6.8218104e-04 -8.8591456e-05 
3.4397163e-03 -2.0499602e-03 -3.8185506e-04 
3.4238540e-03 -2.6647337e-03 -2.4309443e-04 
3.9616533e-04 -8.2697440e-04 -2.3089566e-05 
4.8649008e-04 -4.2018533e-04 -5.9842936e-05 
4.1218256e-03 -2.2146611e-03 -4.8405860e-04 
1.7316233e-02 -5.6462839e-05 -3.3777896e-03 
1.5088113e-02 -2.3813648e-04 -3.0044317e-03 
4.1189063e-03 -2.8237749e-03 -3.2887905e-04 
1.8171511e-04 -5.2514614e-04 -1.6318625e-05 
1.5311919e-02 -1.0987771e-03 -2.6520411e-03 
1.7563814e-02 -9.1445603e-04 -3.0053044e-03 
7.5630403e-08 -2.6260389e-08 -8.6561815e-09 
1.1480180e-02 -1.4531628e-03 -2.0531910e-03 
0.0000000e+00 0.0000000e+00 0.0000000e+00 
2.6628756e-04 -2.0950729e-04 -3.6928846e-05 
1.1608308e-02 -2.2668371e-03 -1.7473382e-03 
6.1706373e-07 -8.5301537e-08 -1.1034770e-08 
4.8186015e-03 -2.3190805e-03 -6.0499745e-04 
0.0000000e+00 0.0000000e+00 0.0000000e+00 
5.3415682e-05 -2.7802473e-04 -1.1784857e-05 
4.8273820e-03 -2.9163379e-03 -4.3288854e-04 
1.2087634e-04 -6.7320856e-05 -1.8946783e-05 
5.5130520e-03 -2.3615009e-03 -7.4607343e-04 
1.1517177e-07 -1.9850757e-08 1.4414446e-09 
-5.7093339e-06 -9.8587880e-05 -7.1792360e-06 
5.5352752e-03 -2.9419067e-03 -5.5680290e-04 
1.7779149e-02 5.5750110e-04 -3.7578847e-03 
1.5596729e-02 3.6193730e-04 -3.3582642e-03 
0.0000000e+00 0.0000000e+00 0.0000000e+00 
1.2180874e-02 -9.7007537e-04 -2.3493045e-03 
1.5853900e-02 -4.6849967e-04 -2.9857212e-03 
1.8065212e-02 -2.6015102e-04 -3.3634701e-03 
1.2337524e-02 -1.7852046e-03 -2.0210007e-03 
4.2018168e-05 1.6140466e-05 -6.0993102e-06 
6.2266397e-03 -2.3109242e-03 -9.0865447e-04 
0.0000000e+00 0.0000000e+00 0.0000000e+00 
6.2551475e-03 -2.9310605e-03 -7.0168066e-04 
2.2233137e-07 -3.2380463e-08 -3.6048593e-09 
0.0000000e+00 0.0000000e+00 0.0000000e+00 
1.7945109e-05 -8.3630613e-07 -1.8178821e-06 
2.8506985e-08 -9.9953867e-09 -4.0898338e-09 
1.8172555e-02 1.1797460e-03 -4.1490179e-03 
1.6016247e-02 9.5690723e-04 -3.7290386e-03 
0.0000000e+00 0.0000000e+00 0.0000000e+00 
0.0000000e+00 0.0000000e+00 0.0000000e+00 
6.9679702e-03 -2.1924290e-03 -1.0931470e-03 
1.2809999e-02 -4.4750402e-04 -2.6664382e-03 
7.0089446e-03 -2.8448137e-03 -8.6705683e-04 
1.2996942e-02 -1.2549236e-03 -2.3157231e-03 
1.6302878e-02 1.6573307e-04 -3.3374445e-03 
1.8483287e-02 3.8478381e-04 -3.7392417e-03 
7.6530823e-06 -7.1533373e-07 -5.8499018e-07 
1.8216385e-02 1.7854815e-03 -4.5544598e-03 
0.0000000e+00 0.0000000e+00 0.0000000e+00 
7.7206553e-03 -2.0021510e-03 -1.2999814e-03 
7.7765007e-03 -2.6827056e-03 -1.0537687e-03 
4.5129156e-08 -8.3352383e-09 3.4069031e-10 
1.6354933e-02 1.5221649e-03 -4.1211960e-03 
1.3360195e-02 9.9855271e-05 -3.0032953e-03 
0.0000000e+00 0.0000000e+00 0.0000000e+00 
1.3578165e-02 -6.9066550e-04 -2.6307011e-03 
7.6915299e-08 -1.1701613e-08 -1.2608274e-09 
1.6659945e-02 7.9253223e-04 -3.7039469e-03 
1.8266724e-02 2.3784719e-03 -4.9813725e-03 
1.8770847e-02 1.0197669e-03 -4.1265748e-03 
3.1517166e-06 -3.2628847e-07 -2.0004356e-07 
0.0000000e+00 0.0000000e+00 0.0000000e+00 
0.0000000e+00 0.0000000e+00 0.0000000e+00 
8.4676240e-03 -1.7403633e-03 -1.5295142e-03 
1.6398698e-02 2.1223167e-03 -4.5308112e-03 
8.5411416e-03 -2.4447159e-03 -1.2622046e-03 
1.8753223e-02 1.6579882e-03 -4.5245527e-03 
1.0692299e-08 -3.7497205e-09 -1.8428056e-09 
1.8313948e-02 2.9495361e-03 -5.4358202e-03 
1.3828212e-02 6.5762730e-04 -3.3581981e-03 
0.0000000e+00 0.0000000e+00 0.0000000e+00 
1.4076804e-02 -1.0735227e-04 -2.9647977e-03 
1.2465209e-06 -1.3942348e-07 -7.1026072e-08 
1.6426818e-02 2.6811541e-03 -4.9650846e-03 
1.6944138e-02 1.3684288e-03 -4.0907161e-03 
9.1920355e-03 -1.4110913e-03 -1.7817798e-03 
0.0000000e+00 0.0000000e+00 0.0000000e+00 
1.8764241e-02 2.2642149e-03 -4.9476218e-03 
9.2862220e-03 -2.1338721e-03 -1.4924987e-03 
1.6936030e-02 1.9934520e-03 -4.4932347e-03 
2.5556956e-08 -4.0257309e-09 -4.5764142e-10 
1.8356277e-02 3.5013740e-03 -5.9155463e-03 
1.6451595e-02 3.2223198e-03 -5.4223323e-03 
1.4214683e-02 1.2127655e-03 -3.7292573e-03 
0.0000000e+00 0.0000000e+00 0.0000000e+00 
1.8773777e-02 2.8440936e-03 -5.3960872e-03 
1.4492234e-02 4.8092450e-04 -3.3165209e-03 
9.8781632e-03 -1.0217399e-03 -2.0564785e-03 
1.7296225e-08 -3.3947374e-09 7.3182023e-11 
9.9959327e-03 -1.7564276e-03 -1.7445901e-03 
4.7313631e-07 -5.6815221e-08 -2.5526894e-08 
0.0000000e+00 0.0000000e+00 0.0000000e+00 
1.6912222e-02 2.5621229e-03 -4.9216710e-03 
0.0000000e+00 0.0000000e+00 0.0000000e+00 
1.6474603e-02 3.7509482e-03 -5.9032594e-03 
1.4518359e-02 1.7705059e-03 -4.1090804e-03 
1.8783027e-02 3.4030960e-03 -5.8706147e-03 
1.8393794e-02 4.0379721e-03 -6.4200042e-03 
1.0512418e-02 -5.8244093e-04 -2.3529783e-03 
1.6897930e-02 3.1130847e-03 -5.3746919e-03 
1.4826273e-02 1.0611742e-03 -3.6838842e-03 
1.0656306e-02 -1.3215907e-03 -2.0182070e-03 
3.9757508e-09 -1.3867807e-09 -7.9249934e-10 
0.0000000e+00 0.0000000e+00 0.0000000e+00 
1.1810419e-03 -1.3833303e-03 -8.0783328e-05 
1.2272140e-03 -9.2093245e-04 -1.6923860e-04 
8.0173841e-04 -1.1095779e-03 -5.3178825e-05 
1.6293620e-03 -1.6413032e-03 -1.2013839e-04 
1.6635847e-03 -1.1505953e-03 -2.2593573e-04 
8.5815269e-04 -6.8827235e-04 -1.2393027e-04 
2.1583752e-03 -1.3613983e-03 -2.9603959e-04 
2.1363923e-03 -1.8689280e-03 -1.7332532e-04 
4.9800536e-04 -8.3650334e-04 -3.5024936e-05 
1.4547849e-02 2.3402937e-03 -4.5317127e-03 
1.7229256e-07 -2.2098881e-08 -9.1026306e-09 
5.6111923e-04 -4.6956271e-04 -8.8007619e-05 
2.6993651e-03 -1.5398402e-03 -3.8149496e-04 
2.6890258e-03 -2.0543376e-03 -2.4216060e-04 
2.7183210e-04 -5.8127061e-04 -2.3874269e-05 
0.0000000e+00 0.0000000e+00 0.0000000e+00 
3.3613315e-04 -2.8117359e-04 -5.9602084e-05 
8.1604350e-09 -1.3180036e-09 -1.6765167e-10 
3.2719651e-03 -1.6756727e-03 -4.8411352e-04 
0.0000000e+00 0.0000000e+00 0.0000000e+00 
1.1084222e-02 -1.0511961e-04 -2.6703081e-03 
3.2722934e-03 -2.1888094e-03 -3.2818905e-04 
1.2007439e-04 -3.6023732e-04 -1.7223014e-05 
1.6889701e-02 3.6497612e-03 -5.8525442e-03 
1.6496399e-02 4.2701880e-03 -6.4083240e-03 
1.1256139e-02 -8.4083376e-04 -2.3128372e-03 
1.4568709e-02 2.8889414e-03 -4.9685533e-03 
1.8792175e-02 3.9457073e-03 -6.3710702e-03 
1.5091728e-02 1.6181732e-03 -4.0662885e-03 
1.7843467e-04 -1.3686658e-04 -3.7134017e-05 
3.8601151e-03 -1.7624458e-03 -6.0552143e-04 
1.8427078e-02 4.5626848e-03 -6.9491733e-03 
3.4195742e-05 -1.8713134e-04 -1.2614349e-05 
3.8701163e-03 -2.2669444e-03 -4.3277504e-04 
7.9089470e-05 -4.5642755e-05 -1.9536026e-05 
1.5061066e-02 2.2146236e-03 -4.4770781e-03 
4.4469466e-03 -1.7977492e-03 -7.4687036e-04 
6.4849983e-09 -1.3436102e-09 1.4948173e-11 
0.0000000e+00 0.0000000e+00 0.0000000e+00 
-4.4512026e-06 -6.6449153e-05 -7.6832148e-06 
4.4694659e-03 -2.2887907e-03 -5.5758079e-04 
1.4587642e-02 3.4250244e-03 -5.4267356e-03 
1.1586527e-02 3.9761176e-04 -3.0071498e-03 
1.1787626e-02 -3.2691658e-04 -2.6277071e-03 
6.0181677e-08 -8.2066585e-09 -3.1806644e-09 
1.6885363e-02 4.1757086e-03 -6.3554137e-03 
2.8965442e-05 1.1480754e-05 -5.9825184e-06 
0.0000000e+00 0.0000000e+00 0.0000000e+00 
1.5045460e-02 2.7739247e-03 -4.9117589e-03 
5.0564371e-03 -1.7509420e-03 -9.0985582e-04 
1.6517142e-02 4.7822190e-03 -6.9379332e-03 
0.0000000e+00 0.0000000e+00 0.0000000e+00 
5.0832075e-03 -2.2835152e-03 -7.0275314e-04 
1.8801127e-02 4.4755642e-03 -6.8972888e-03 
1.2504051e-05 -3.0808118e-07 -1.7961124e-06 
1.4603764e-09 -5.0559212e-10 -3.2625463e-10 
0.0000000e+00 0.0000000e+00 0.0000000e+00 
1.4604872e-02 3.9510629e-03 -5.9073563e-03 
1.8456684e-02 5.0782654e-03 -7.5032436e-03 
1.2015896e-02 9.1359153e-04 -3.3618459e-03 
0.0000000e+00 0.0000000e+00 0.0000000e+00 
5.6974245e-03 -1.6453966e-03 -1.0947537e-03 
5.7353368e-03 -2.2117398e-03 -8.6840364e-04 
1.2246616e-02 2.0720025e-04 -2.9617685e-03 
1.5031990e-02 3.3183254e-03 -5.3685699e-03 
2.5057922e-09 -4.1024592e-10 -6.0785939e-11 
0.0000000e+00 0.0000000e+00 0.0000000e+00 
5.3317563e-06 -4.2300272e-07 -5.8948797e-07 
1.6883677e-02 4.6934220e-03 -6.8834834e-03 
0.0000000e+00 0.0000000e+00 0.0000000e+00 
6.3543627e-03 -1.4767658e-03 -1.3019734e-03 
6.4055868e-03 -2.0725462e-03 -1.0552569e-03 
2.0163526e-08 -2.9105287e-09 -1.0819826e-09 
1.6536802e-02 5.2887038e-03 -7.4924761e-03 
1.2372212e-02 1.4322640e-03 -3.7325148e-03 
0.0000000e+00 0.0000000e+00 0.0000000e+00 
1.8809753e-02 4.9955929e-03 -7.4492367e-03 
1.5020904e-02 3.8514514e-03 -5.8485377e-03 
1.4620792e-02 4.4691158e-03 -6.4114383e-03 
1.2632526e-02 7.4939022e-04 -3.3136988e-03 
2.1974683e-06 -1.9629334e-07 -2.0772909e-07 
0.0000000e+00 0.0000000e+00 0.0000000e+00 
7.0110573e-03 -1.2444422e-03 -1.5318153e-03 
7.0781140e-03 -1.8651921e-03 -1.2637118e-03 
1.8483024e-02 5.5870567e-03 -8.0825007e-03 
2.3796340e-09 -5.1763271e-10 3.4600046e-12 
0.0000000e+00 0.0000000e+00 0.0000000e+00 
1.2654942e-02 1.9647065e-03 -4.1155936e-03 
1.6883841e-02 5.2047749e-03 -7.4369651e-03 
8.6976831e-07 -8.4465071e-08 -7.5973993e-08 
1.2947602e-02 1.2890100e-03 -3.6818555e-03 
1.5012047e-02 4.3755881e-03 -6.3523925e-03 
7.6517779e-03 -9.5121562e-04 -1.7842954e-03 
0.0000000e+00 0.0000000e+00 0.0000000e+00 
7.7374098e-03 -1.5919125e-03 -1.4939398e-03 
1.4635692e-02 4.9807862e-03 -6.9397972e-03 
1.2677556e-02 2.5166585e-03 -4.5355652e-03 
1.6555253e-02 5.7910844e-03 -8.0723250e-03 
1.8817944e-02 5.5082394e-03 -8.0269929e-03 
5.2845650e-10 -1.8166808e-10 -1.2904161e-10 
0.0000000e+00 0.0000000e+00 0.0000000e+00 
7.4069573e-10 -1.2117236e-10 -2.1557102e-11 
0.0000000e+00 0.0000000e+00 0.0000000e+00 
6.4807724e-09 -9.8612962e-10 -3.5731351e-10 
0.0000000e+00 0.0000000e+00 0.0000000e+00 
8.2620233e-03 -6.0290354e-04 -2.0591174e-03 
1.2693544e-02 3.0560482e-03 -4.9734134e-03 
1.3203855e-02 1.8183202e-03 -4.0650032e-03 
8.3689727e-03 -1.2578346e-03 -1.7459169e-03 
3.3033018e-07 -3.4593779e-08 -2.7941891e-08 
0.0000000e+00 0.0000000e+00 0.0000000e+00 
1.5005118e-02 4.8925304e-03 -6.8807704e-03 
1.3175633e-02 2.3934264e-03 -4.4756741e-03 
1.6885307e-02 5.7113403e-03 -8.0160946e-03 
1.8506346e-02 6.0912143e-03 -8.6872550e-03 
1.4649727e-02 5.4873945e-03 -7.4930829e-03 
1.2708929e-02 3.5890515e-03 -5.4322425e-03 
8.8293152e-03 -2.0773175e-04 -2.3556622e-03 
8.9600999e-03 -8.7063364e-04 -2.0194114e-03 
1.3162932e-02 2.9416594e-03 -4.9109305e-03 
1.2032129e-07 -1.3506678e-08 -1.0120713e-08 
0.0000000e+00 0.0000000e+00 0.0000000e+00 
1.8825632e-02 6.0157115e-03 -8.6307069e-03 
1.6572330e-02 6.2908093e-03 -8.6778207e-03 
1.2723442e-02 4.1156895e-03 -5.9131044e-03 
1.4999837e-02 5.4037343e-03 -7.4342126e-03 
9.3438700e-03 2.2450961e-04 -2.6729789e-03 
1.3151027e-02 3.4820526e-03 -5.3685568e-03 
9.5006023e-03 -4.3989980e-04 -2.3139582e-03 
8.5511781e-10 -1.9440168e-10 1.1682590e-12 
0.0000000e+00 0.0000000e+00 0.0000000e+00 
1.9988040e-09 -3.1932476e-10 -1.1447564e-10 
0.0000000e+00 0.0000000e+00 0.0000000e+00 
1.4662934e-02 5.9901671e-03 -8.0718175e-03 
1.6887680e-02 6.2146420e-03 -8.6211124e-03 
2.1104363e-10 -3.3843237e-11 -7.4317974e-12 
0.0000000e+00 0.0000000e+00 0.0000000e+00 
9.7989812e-03 6.8345596e-04 -3.0097747e-03 
1.3140158e-02 4.0152753e-03 -5.8491165e-03 
1.2737057e-02 4.6363915e-03 -6.4169979e-03 
9.9832984e-03 2.3710892e-05 -2.6288321e-03 
4.2017518e-08 -5.0272320e-09 -3.5698642e-09 
1.8804096e-10 -6.4315858e-11 -4.9216822e-11 
1.8526768e-02 6.5929014e-03 -9.3178004e-03 
0.0000000e+00 0.0000000e+00 0.0000000e+00 
0.0000000e+00 0.0000000e+00 0.0000000e+00 
7.7801233e-04 -9.1134553e-04 -7.7744378e-05 
8.0897170e-04 -5.6424586e-04 -1.6756622e-04 
5.0254923e-04 -7.0604600e-04 -5.0304388e-05 
1.1165258e-03 -1.1113905e-03 -1.1719680e-04 
1.1395279e-03 -7.3181401e-04 -2.2418816e-04 
5.3950242e-04 -4.0157407e-04 -1.2253257e-04 
1.5253477e-03 -8.9068379e-04 -2.9443981e-04 
1.5111351e-03 -1.2925598e-03 -1.7077739e-04 
2.9278939e-04 -5.0972629e-04 -3.2525335e-05 
3.3250588e-04 -2.5706799e-04 -8.7045817e-05 
1.9566563e-03 -1.0284432e-03 -3.8026867e-04 
1.9512447e-03 -1.4429756e-03 -2.4031913e-04 
1.4668866e-04 -3.3585707e-04 -2.1898626e-05 
1.4995976e-02 5.9105116e-03 -8.0131730e-03 
1.8486116e-04 -1.4192269e-04 -5.9182170e-05 
2.4205118e-03 -1.1350652e-03 -4.8345616e-04 
1.0191060e-02 1.1591924e-03 -3.3644105e-03 
2.4234427e-03 -1.5533604e-03 -3.2736629e-04 
5.7455429e-05 -1.9557655e-04 -1.5862503e-05 
1.8832760e-02 6.5201940e-03 -9.2605464e-03 
1.0404201e-02 5.0942804e-04 -2.9630263e-03 
1.6587827e-02 6.7895041e-03 -9.3092574e-03 
1.3130494e-02 4.5418441e-03 -6.3532526e-03 
8.9363923e-05 -6.3369451e-05 -3.7274938e-05 