# vtk DataFile Version 4.0
vtk output
ASCII
DATASET UNSTRUCTURED_GRID
POINTS 2524 float
-1.3600737e-02 9.2723727e-02 1.0000000e-01 
-1.1117464e-02 9.2369959e-02 1.0000000e-01 
-1.4838499e-02 9.0371020e-02 1.0000000e-01 
-1.2160867e-02 9.4958462e-02 1.0000000e-01 
-1.2428896e-02 9.0104103e-02 1.0000000e-01 
-9.5961727e-03 9.4500601e-02 1.0000000e-01 
-1.3518542e-02 8.7723628e-02 1.0000000e-01 
-1.5864562e-02 8.7918580e-02 1.0000000e-01 
-1.0530048e-02 9.7057916e-02 1.0000000e-01 
-7.8788539e-03 9.6476652e-02 1.0000000e-01 
-1.4376495e-02 8.5250191e-02 1.0000000e-01 
-1.6670976e-02 8.5385412e-02 1.0000000e-01 
-8.7209158e-03 9.9005811e-02 1.0000000e-01 
-5.9811245e-03 9.8280147e-02 1.0000000e-01 
-1.4994953e-02 8.2706288e-02 1.0000000e-01 
-1.7251492e-02 8.2791135e-02 1.0000000e-01 
-6.7474889e-03 1.0078707e-01 1.0000000e-01 
-3.9202408e-03 9.9894680e-02 1.0000000e-01 
-1.3600737e-02 9.2723727e-02 8.7499991e-02 
-1.5368291e-02 8.0115035e-02 1.0000000e-01 
-1.1117464e-02 9.2369959e-02 8.7499991e-02 
-1.2160867e-02 9.4958462e-02 8.7499991e-02 
-1.4838499e-02 9.0371020e-02 8.7499991e-02 
-1.2428894e-02 9.0104103e-02 8.7499991e-02 
-1.7601609e-02 8.0155857e-02 1.0000000e-01 
-4.6250601e-03 1.0238787e-01 1.0000000e-01 
-9.5961727e-03 9.4500601e-02 8.7499991e-02 
-1.3518536e-02 8.7723650e-02 8.7499991e-02 
-1.0530052e-02 9.7057909e-02 8.7499991e-02 
-1.5864562e-02 8.7918587e-02 8.7499991e-02 
-7.8788549e-03 9.6476652e-02 8.7499991e-02 
-1.4376482e-02 8.5250244e-02 8.7499991e-02 
-1.7149430e-03 1.0130557e-01 1.0000000e-01 
-8.7209288e-03 9.9005796e-02 8.7499991e-02 
-1.6670974e-02 8.5385419e-02 8.7499991e-02 
-1.5493116e-02 7.7500008e-02 1.0000000e-01 
-5.9811310e-03 9.8280139e-02 8.7499991e-02 
-1.7718617e-02 7.7499993e-02 1.0000000e-01 
-2.3700756e-03 1.0379581e-01 1.0000000e-01 
-1.4994934e-02 8.2706384e-02 8.7499991e-02 
-6.7475229e-03 1.0078704e-01 8.7499991e-02 
-1.7251486e-02 8.2791157e-02 8.7499991e-02 
6.1471661e-04 1.0250000e-01 1.0000000e-01 
-3.9202627e-03 9.9894665e-02 8.7499991e-02 
-1.5368290e-02 8.0115050e-02 8.7499991e-02 
-1.5368292e-02 7.4884973e-02 1.0000000e-01 
-4.6251309e-03 1.0238782e-01 8.7499991e-02 
-1.7601604e-02 8.0155902e-02 8.7499991e-02 
-1.7601607e-02 7.4844137e-02 1.0000000e-01 
-0.0000000e+00 1.0500000e-01 1.0000000e-01 
-1.7149959e-03 1.0130554e-01 8.7499991e-02 
3.2798690e-03 1.0250000e-01 1.0000000e-01 
-1.5493116e-02 7.7499904e-02 8.7499991e-02 
-2.3702064e-03 1.0379574e-01 8.7499991e-02 
-1.7718617e-02 7.7500083e-02 8.7499991e-02 
2.6781005e-03 1.0500000e-01 1.0000000e-01 
-1.4994955e-02 7.2293721e-02 1.0000000e-01 
-1.7251490e-02 7.2208859e-02 1.0000000e-01 
6.1471661e-04 1.0250000e-01 8.7499991e-02 
-1.5368287e-02 7.4884921e-02 8.7499991e-02 
6.0768481e-03 1.0250000e-01 1.0000000e-01 
-0.0000000e+00 1.0500000e-01 8.7499991e-02 
-1.7601607e-02 7.4844129e-02 8.7499991e-02 
5.4879682e-03 1.0500000e-01 1.0000000e-01 
-1.4376498e-02 6.9749817e-02 1.0000000e-01 
3.2798694e-03 1.0250000e-01 8.7499991e-02 
-1.6670974e-02 6.9614582e-02 1.0000000e-01 
2.6781012e-03 1.0500000e-01 8.7499991e-02 
-1.4994950e-02 7.2293699e-02 8.7499991e-02 
-1.7251475e-02 7.2208777e-02 8.7499991e-02 
9.0098707e-03 1.0250000e-01 1.0000000e-01 
-1.3600737e-02 9.2723727e-02 7.4999996e-02 
-1.1117464e-02 9.2369959e-02 7.4999996e-02 
-1.2160868e-02 9.4958462e-02 7.4999996e-02 
-1.4838499e-02 9.0371020e-02 7.4999996e-02 
-1.2428894e-02 9.0104103e-02 7.4999996e-02 
8.4337983e-03 1.0500000e-01 1.0000000e-01 
6.0768486e-03 1.0250000e-01 8.7499991e-02 
-9.5961727e-03 9.4500601e-02 7.4999996e-02 
-1.3518546e-02 6.7276381e-02 1.0000000e-01 
-1.3518536e-02 8.7723643e-02 7.4999996e-02 
-1.0530052e-02 9.7057909e-02 7.4999996e-02 
-1.5864560e-02 8.7918587e-02 7.4999996e-02 
-1.5864560e-02 6.7081414e-02 1.0000000e-01 
5.4879687e-03 1.0500000e-01 8.7499991e-02 
-7.8788558e-03 9.6476652e-02 7.4999996e-02 
-1.4376483e-02 8.5250236e-02 7.4999996e-02 
-1.4376496e-02 6.9749802e-02 8.7499991e-02 
-8.7209279e-03 9.9005796e-02 7.4999996e-02 
-1.6670972e-02 8.5385419e-02 7.4999996e-02 
-1.6670963e-02 6.9614545e-02 8.7499991e-02 
-5.9811347e-03 9.8280132e-02 7.4999996e-02 
-1.4994935e-02 8.2706377e-02 7.4999996e-02 
-6.7475205e-03 1.0078704e-01 7.4999996e-02 
-1.7251484e-02 8.2791165e-02 7.4999996e-02 
1.2083010e-02 1.0250000e-01 1.0000000e-01 
9.0098716e-03 1.0250000e-01 8.7499991e-02 
-3.9202701e-03 9.9894658e-02 7.4999996e-02 
-1.2428899e-02 6.4895906e-02 1.0000000e-01 
1.1519642e-02 1.0500000e-01 1.0000000e-01 
-1.5368290e-02 8.0115058e-02 7.4999996e-02 
-1.4838495e-02 6.4628974e-02 1.0000000e-01 
8.4337983e-03 1.0500000e-01 8.7499991e-02 
-4.6251258e-03 1.0238782e-01 7.4999996e-02 
-1.7601606e-02 8.0155894e-02 7.4999996e-02 
-1.3518546e-02 6.7276374e-02 8.7499991e-02 
-1.5864553e-02 6.7081392e-02 8.7499991e-02 
-1.7150094e-03 1.0130554e-01 7.4999996e-02 
-1.5493116e-02 7.7499934e-02 7.4999996e-02 
-2.3701969e-03 1.0379574e-01 7.4999996e-02 
-1.7718617e-02 7.7500060e-02 7.4999996e-02 
1.2083010e-02 1.0250000e-01 8.7499991e-02 
-1.1117469e-02 6.2630050e-02 1.0000000e-01 
6.1471661e-04 1.0250000e-01 7.4999996e-02 
-1.3600733e-02 6.2276267e-02 1.0000000e-01 
1.5300166e-02 1.0250000e-01 1.0000000e-01 
-1.2428900e-02 6.4895906e-02 8.7499991e-02 
1.1519643e-02 1.0500000e-01 8.7499991e-02 
-1.5368288e-02 7.4884929e-02 7.4999996e-02 
-1.4838492e-02 6.4628966e-02 8.7499991e-02 
1.4749384e-02 1.0500000e-01 1.0000000e-01 
-0.0000000e+00 1.0500000e-01 7.4999996e-02 
-1.7601607e-02 7.4844122e-02 7.4999996e-02 
3.2798708e-03 1.0250000e-01 7.4999996e-02 
2.6781023e-03 1.0500000e-01 7.4999996e-02 
-1.4994948e-02 7.2293691e-02 7.4999996e-02 
-9.5961774e-03 6.0499407e-02 1.0000000e-01 
-1.7251475e-02 7.2208785e-02 7.4999996e-02 
-1.1117470e-02 6.2630050e-02 8.7499991e-02 
-1.2160863e-02 6.0041532e-02 1.0000000e-01 
-1.3600732e-02 6.2276267e-02 8.7499991e-02 
1.5300167e-02 1.0250000e-01 8.7499991e-02 
6.0768500e-03 1.0250000e-01 7.4999996e-02 
1.4749384e-02 1.0500000e-01 8.7499991e-02 
1.8665034e-02 1.0250000e-01 1.0000000e-01 
5.4879701e-03 1.0500000e-01 7.4999996e-02 
-1.4376494e-02 6.9749802e-02 7.4999996e-02 
1.8126702e-02 1.0500000e-01 1.0000000e-01 
-1.6670963e-02 6.9614545e-02 7.4999996e-02 
-7.8788595e-03 5.8523357e-02 1.0000000e-01 
-9.5961811e-03 6.0499411e-02 8.7499991e-02 
-1.0530042e-02 5.7942081e-02 1.0000000e-01 
-1.2160863e-02 6.0041532e-02 8.7499991e-02 
9.0098726e-03 1.0250000e-01 7.4999996e-02 
8.4338002e-03 1.0500000e-01 7.4999996e-02 
-1.3518545e-02 6.7276374e-02 7.4999996e-02 
-1.5864553e-02 6.7081392e-02 7.4999996e-02 
1.8665034e-02 1.0250000e-01 8.7499991e-02 
1.8126702e-02 1.0500000e-01 8.7499991e-02 
-5.9811305e-03 5.6719862e-02 1.0000000e-01 
-7.8788726e-03 5.8523368e-02 8.7499991e-02 
-8.7209092e-03 5.5994183e-02 1.0000000e-01 
-1.0530042e-02 5.7942081e-02 8.7499991e-02 
2.2181055e-02 1.0250000e-01 1.0000000e-01 
1.2083011e-02 1.0250000e-01 7.4999996e-02 
2.1655027e-02 1.0500000e-01 1.0000000e-01 
-1.2428900e-02 6.4895906e-02 7.4999996e-02 
-1.3600738e-02 9.2723727e-02 6.2499993e-02 
1.1519643e-02 1.0500000e-01 7.4999996e-02 
-1.1117464e-02 9.2369959e-02 6.2499993e-02 
-1.2160869e-02 9.4958462e-02 6.2499993e-02 
-1.4838499e-02 9.0371020e-02 6.2499993e-02 
-1.2428895e-02 9.0104103e-02 6.2499993e-02 
-1.4838493e-02 6.4628966e-02 7.4999996e-02 
-9.5961727e-03 9.4500601e-02 6.2499993e-02 
-1.3518537e-02 8.7723643e-02 6.2499993e-02 
-1.0530052e-02 9.7057909e-02 6.2499993e-02 
-1.5864560e-02 8.7918587e-02 6.2499993e-02 
-7.8788577e-03 9.6476644e-02 6.2499993e-02 
-1.4376485e-02 8.5250229e-02 6.2499993e-02 
-1.6670970e-02 8.5385427e-02 6.2499993e-02 
-8.7209269e-03 9.9005803e-02 6.2499993e-02 
-5.9811398e-03 9.8280132e-02 6.2499993e-02 
-1.4994938e-02 8.2706362e-02 6.2499993e-02 
-3.9202473e-03 5.5105329e-02 1.0000000e-01 
-5.9811682e-03 5.6719895e-02 8.7499991e-02 
-1.7251484e-02 8.2791172e-02 6.2499993e-02 
-6.7475168e-03 1.0078704e-01 6.2499993e-02 
-8.7209111e-03 5.5994183e-02 8.7499991e-02 
-6.7474819e-03 5.4212932e-02 1.0000000e-01 
2.2181056e-02 1.0250000e-01 8.7499991e-02 
-1.1117470e-02 6.2630050e-02 7.4999996e-02 
2.1655027e-02 1.0500000e-01 8.7499991e-02 
-3.9202808e-03 9.9894650e-02 6.2499993e-02 
-1.3600732e-02 6.2276267e-02 7.4999996e-02 
1.5300168e-02 1.0250000e-01 7.4999996e-02 
-1.5368289e-02 8.0115065e-02 6.2499993e-02 
1.4749385e-02 1.0500000e-01 7.4999996e-02 
-4.6251179e-03 1.0238782e-01 6.2499993e-02 
-1.7601606e-02 8.0155887e-02 6.2499993e-02 
-1.7150288e-03 1.0130552e-01 6.2499993e-02 
-1.5493116e-02 7.7499963e-02 6.2499993e-02 
2.5851376e-02 1.0250000e-01 1.0000000e-01 
-2.3701836e-03 1.0379575e-01 6.2499993e-02 
-1.7718617e-02 7.7500030e-02 6.2499993e-02 
-1.7149500e-03 5.3694431e-02 1.0000000e-01 
-3.9203316e-03 5.5105384e-02 8.7499991e-02 
2.5337499e-02 1.0500000e-01 1.0000000e-01 
-9.5961811e-03 6.0499411e-02 7.4999996e-02 
-6.7474898e-03 5.4212935e-02 8.7499991e-02 
-4.6250527e-03 5.2612130e-02 1.0000000e-01 
-1.2160863e-02 6.0041532e-02 7.4999996e-02 
6.1471661e-04 1.0250000e-01 6.2499993e-02 
-1.5368289e-02 7.4884936e-02 6.2499993e-02 
-0.0000000e+00 1.0500000e-01 6.2499993e-02 
-1.7601606e-02 7.4844114e-02 6.2499993e-02 
1.8665036e-02 1.0250000e-01 7.4999996e-02 
1.8126704e-02 1.0500000e-01 7.4999996e-02 
3.2798727e-03 1.0250000e-01 6.2499993e-02 
2.5851376e-02 1.0250000e-01 8.7499991e-02 
6.1471661e-04 5.2499998e-02 1.0000000e-01 
-1.7151133e-03 5.3694524e-02 8.7499991e-02 
2.6781042e-03 1.0500000e-01 6.2499993e-02 
2.5337499e-02 1.0500000e-01 8.7499991e-02 
-1.4994946e-02 7.2293676e-02 6.2499993e-02 
-7.8788716e-03 5.8523368e-02 7.4999996e-02 
-1.7251477e-02 7.2208792e-02 6.2499993e-02 
-1.0530043e-02 5.7942081e-02 7.4999996e-02 
-4.6250741e-03 5.2612145e-02 8.7499991e-02 
-2.3700679e-03 5.1204182e-02 1.0000000e-01 
6.0768514e-03 1.0250000e-01 6.2499993e-02 
3.2995713e-03 5.2499998e-02 1.0000000e-01 
5.4879719e-03 1.0500000e-01 6.2499993e-02 
-1.4376492e-02 6.9749795e-02 6.2499993e-02 
-1.6670965e-02 6.9614552e-02 6.2499993e-02 
2.9678803e-02 1.0250000e-01 1.0000000e-01 
[...]
POINT_DATA 2524
FIELD FieldData 1
DISPLACEMENT 3 2524  float
-1.7788167e-03 1.8842893e-03 8.9574547e-05 
-1.8019234e-03 1.6308647e-03 2.6778772e-04 
-2.0401452e-03 2.0065182e-03 1.6021835e-04 
-1.4712480e-03 1.7058735e-03 4.2095722e-05 
-2.0465103e-03 1.8244064e-03 3.6048819e-04 
-1.5141302e-03 1.3937594e-03 1.9628207e-04 
-2.2292940e-03 1.9744337e-03 4.7865690e-04 
-2.2353462e-03 2.0793604e-03 2.5790680e-04 
-1.1416994e-03 1.4721637e-03 1.3465413e-05 
-1.2050123e-03 1.1205566e-03 1.4152768e-04 
-2.3378318e-03 2.0870084e-03 6.2633469e-04 
-2.3514347e-03 2.1160059e-03 3.8595646e-04 
-8.1607595e-04 1.1923879e-03 -9.7594420e-07 
-8.9678488e-04 8.2671043e-04 9.8980956e-05 
-2.3685475e-03 2.1713690e-03 8.0734631e-04 
-2.3846619e-03 2.1343627e-03 5.4692070e-04 
-5.1922968e-04 8.8407501e-04 -6.1727651e-06 
-6.0938200e-04 5.3533545e-04 6.3984102e-05 
-9.8715175e-04 1.1048868e-03 1.5129667e-04 
-2.3300415e-03 2.2350007e-03 1.0253655e-03 
-1.0003434e-03 9.5449603e-04 3.0480040e-04 
-8.1576721e-04 1.0266477e-03 1.0429272e-04 
-1.1111418e-03 1.1341680e-03 2.1946264e-04 
-1.1126699e-03 1.0498225e-03 3.9485321e-04 
-2.3428055e-03 2.1551282e-03 7.4243214e-04 
-2.7242716e-04 5.7263835e-04 -7.3906012e-06 
-8.4405037e-04 8.2018034e-04 2.3479614e-04 
-1.1634395e-03 1.1082137e-03 5.0923222e-04 
-6.1892782e-04 8.9889503e-04 7.4118077e-05 
-1.1696477e-03 1.1218684e-03 3.1281248e-04 
-6.6421326e-04 6.5181492e-04 1.8039314e-04 
-1.1403556e-03 1.1376730e-03 6.5192429e-04 
-3.5848134e-04 2.7549564e-04 3.1504431e-05 
-4.2010969e-04 7.2833581e-04 5.6235964e-05 
-1.1505758e-03 1.0810482e-03 4.3493725e-04 
-2.2768027e-03 2.2820854e-03 1.2747742e-03 
-4.8139860e-04 4.6166300e-04 1.3711269e-04 
-2.2252395e-03 2.1756350e-03 9.7895181e-04 
-9.1011985e-05 2.9244256e-04 -1.0738587e-05 
-1.0384506e-03 1.1503778e-03 8.2654797e-04 
-2.4223817e-04 5.2866043e-04 4.5992350e-05 
-1.0496204e-03 1.0288022e-03 5.8875355e-04 
-1.0115199e-04 1.3937062e-06 1.1452260e-05 
-3.1364159e-04 2.6914655e-04 1.0060665e-04 
-8.6155481e-04 1.1602569e-03 1.0365915e-03 
-2.1661394e-03 2.2795312e-03 1.5601246e-03 
-1.0636716e-04 3.1964472e-04 3.8596620e-05 
-8.7240763e-04 9.8485989e-04 7.7511655e-04 
-2.1119958e-03 2.1605736e-03 1.2424843e-03 
0.0000000e+00 0.0000000e+00 0.0000000e+00 
-1.7385333e-04 1.0067232e-04 6.6988352e-05 
-4.9970062e-05 -5.3725034e-07 1.5321634e-06 
-6.1953237e-04 1.1791969e-03 1.2884606e-03 
-2.9931765e-05 1.2395317e-04 2.8394761e-05 
-6.1499968e-04 9.6316054e-04 9.8225649e-04 
0.0000000e+00 0.0000000e+00 0.0000000e+00 
-2.0691040e-03 2.2836234e-03 1.8803314e-03 
-2.0147951e-03 2.1740433e-03 1.5333828e-03 
-5.9116963e-05 -9.1445709e-06 1.7319722e-05 
-3.4178208e-04 1.1979649e-03 1.5675017e-03 
-2.2593360e-05 1.3173928e-06 -2.3372510e-07 
0.0000000e+00 0.0000000e+00 0.0000000e+00 
-3.3940497e-04 9.7907509e-04 1.2319564e-03 
0.0000000e+00 0.0000000e+00 0.0000000e+00 
-1.9977367e-03 2.2968536e-03 2.2358731e-03 
-1.9936610e-05 6.9812781e-06 4.3187351e-06 
-1.9438871e-03 2.2038252e-03 1.8565848e-03 
0.0000000e+00 0.0000000e+00 0.0000000e+00 
-8.8241868e-05 1.2360909e-03 1.8823008e-03 
-8.1641541e-05 1.0298061e-03 1.5174453e-03 
-1.0172963e-05 1.0666266e-06 -2.5707797e-07 
-2.8173995e-04 3.0414510e-04 1.2797295e-04 
-2.4868248e-04 3.1380370e-04 2.8639275e-04 
-2.7306011e-04 3.3182566e-04 8.1752398e-05 
-2.3451596e-04 2.4327061e-04 1.9419358e-04 
-1.9437844e-04 3.1473755e-04 3.8006128e-04 
0.0000000e+00 0.0000000e+00 0.0000000e+00 
-8.1182934e-06 2.0403152e-06 1.2827966e-06 
-2.5033942e-04 2.8769689e-04 2.1201327e-04 
-1.9539848e-03 2.3182482e-03 2.6283658e-03 
-7.4028649e-05 2.9474488e-04 4.9667235e-04 
-2.2578171e-04 3.2302842e-04 5.1651430e-05 
-1.1761245e-04 1.5786804e-04 2.8395589e-04 
-1.9011523e-03 2.2412331e-03 2.2141212e-03 
0.0000000e+00 0.0000000e+00 0.0000000e+00 
-2.1542527e-04 2.3779825e-04 1.5317653e-04 
1.2128428e-04 2.6280552e-04 6.3963886e-04 
1.3354777e-04 1.2907546e-03 2.2337423e-03 
-1.5875905e-04 2.8045091e-04 3.3606175e-05 
7.7633718e-05 6.0666385e-05 4.0030357e-04 
1.4415303e-04 1.1009421e-03 1.8381429e-03 
-1.6057151e-04 1.7133256e-04 1.0625214e-04 
3.9489230e-04 2.3126342e-04 8.1204769e-04 
-9.0300011e-05 2.1266869e-04 2.3531509e-05 
3.5391722e-04 -3.3577515e-05 5.4559886e-04 
-4.5125498e-06 5.8281887e-07 -1.2374311e-07 
-3.2334749e-06 8.7912059e-07 4.7940159e-07 
-1.0093010e-04 1.0088758e-04 6.8028319e-05 
-1.9341586e-03 2.3467108e-03 3.0589234e-03 
0.0000000e+00 0.0000000e+00 0.0000000e+00 
7.4459234e-04 2.1452326e-04 1.0166556e-03 
-1.8823339e-03 2.2806909e-03 2.6075151e-03 
0.0000000e+00 0.0000000e+00 0.0000000e+00 
-3.6032299e-05 1.3336839e-04 1.7512602e-05 
7.0842181e-04 -1.1102266e-04 7.2138442e-04 
3.2224503e-04 1.3581599e-03 2.6228765e-03 
3.3678178e-04 1.1840671e-03 2.1946072e-03 
-4.9391685e-05 4.4096570e-05 3.6228856e-05 
1.1648157e-03 2.2863960e-04 1.2556616e-03 
3.1781022e-07 5.2890500e-05 1.1554586e-05 
1.1388742e-03 -1.6367107e-04 9.2947599e-04 
-1.2826058e-06 3.7411201e-07 2.0263077e-07 
-1.9314418e-03 2.3826766e-03 3.5280157e-03 
-2.9123717e-05 -7.5306311e-06 1.4754999e-05 
-1.8797572e-03 2.3199879e-03 3.0378536e-03 
-1.9603826e-06 2.8549891e-07 -4.7867335e-08 
4.8082953e-04 1.4354946e-03 3.0503476e-03 
0.0000000e+00 0.0000000e+00 0.0000000e+00 
1.6125598e-03 2.3638223e-04 1.5323890e-03 
4.9959135e-04 1.2734296e-03 2.5875238e-03 
0.0000000e+00 0.0000000e+00 0.0000000e+00 
0.0000000e+00 0.0000000e+00 0.0000000e+00 
1.5893923e-03 -1.3003190e-04 1.1778552e-03 
-1.2859057e-05 -1.0785345e-07 3.7947430e-06 
0.0000000e+00 0.0000000e+00 0.0000000e+00 
2.0256776e-03 2.8467760e-04 1.8470050e-03 
-1.9380492e-03 2.4284848e-03 4.0354524e-03 
2.0103871e-03 -6.0626211e-05 1.4608992e-03 
6.1482977e-04 1.5218433e-03 3.5162775e-03 
-1.8845919e-03 2.3602215e-03 3.5057135e-03 
6.3862634e-04 1.3661574e-03 3.0173699e-03 
-5.0808666e-07 1.5566332e-07 8.9202558e-08 
-5.4308357e-06 2.5101431e-07 1.1059399e-06 
0.0000000e+00 0.0000000e+00 0.0000000e+00 
-8.3236671e-07 1.3252875e-07 -1.6491832e-08 
0.0000000e+00 0.0000000e+00 0.0000000e+00 
2.4007105e-03 3.6518916e-04 2.2001355e-03 
0.0000000e+00 0.0000000e+00 0.0000000e+00 
2.3928147e-03 3.8128554e-05 1.7806947e-03 
-1.9469908e-03 2.4879056e-03 4.5804055e-03 
7.3061610e-04 1.6183268e-03 4.0201792e-03 
-1.8887656e-03 2.4052402e-03 4.0110992e-03 
7.6094799e-04 1.4622483e-03 3.4842272e-03 
-2.2111647e-06 1.2468733e-07 3.4908436e-07 
0.0000000e+00 0.0000000e+00 0.0000000e+00 
2.7362623e-03 4.7160231e-04 2.5924579e-03 
2.7359587e-03 1.6049702e-04 2.1378722e-03 
-2.0097900e-07 6.3617804e-08 3.9399065e-08 
0.0000000e+00 0.0000000e+00 0.0000000e+00 
-1.9532742e-03 2.5651257e-03 5.1614824e-03 
8.3391787e-04 1.7276485e-03 4.5608673e-03 
-1.8864217e-03 2.4606378e-03 4.5534163e-03 
8.7312132e-04 1.5641260e-03 3.9876467e-03 
-3.4516830e-07 5.9166165e-08 -5.2639892e-09 
-8.6311019e-07 5.4833137e-08 1.1829453e-07 
0.0000000e+00 0.0000000e+00 0.0000000e+00 
3.0335169e-03 5.9907167e-04 3.0241457e-03 
4.1830179e-04 -5.0312968e-04 1.3324214e-04 
0.0000000e+00 0.0000000e+00 0.0000000e+00 
4.7858473e-04 -3.0099656e-04 2.8615035e-04 
2.5044804e-04 -3.6066063e-04 8.7992892e-05 
6.5318745e-04 -6.6188996e-04 1.9798292e-04 
7.1425654e-04 -4.0361189e-04 3.8088296e-04 
3.0415643e-03 3.0079889e-04 2.5327480e-03 
3.0706773e-04 -2.1037983e-04 2.1050831e-04 
1.0225208e-03 -5.1041547e-04 4.9823226e-04 
1.3806627e-04 -2.4145715e-04 5.8283778e-05 
9.6349034e-04 -8.2643668e-04 2.8586845e-04 
1.8857029e-04 -1.3579852e-04 1.5043843e-04 
1.4080561e-03 -6.1050942e-04 6.4159866e-04 
1.3534860e-03 -9.8391541e-04 4.0014004e-04 
6.7896559e-05 -1.4834403e-04 3.9999384e-05 
1.1072200e-04 -7.7463286e-05 1.0262225e-04 
1.8714328e-03 -6.9093093e-04 8.1418123e-04 
-1.9543150e-03 2.6634044e-03 5.7768729e-03 
9.2875067e-04 1.8532703e-03 5.1363804e-03 
1.8231748e-03 -1.1206792e-03 5.4357044e-04 
2.6796844e-05 -8.0066304e-05 2.8995968e-05 
9.8006323e-04 1.6758055e-03 4.5265290e-03 
-1.8748424e-03 2.5324770e-03 5.1314794e-03 
-7.9216363e-08 2.5578034e-08 1.7165259e-08 
3.2956784e-03 7.4433291e-04 3.4948359e-03 
0.0000000e+00 0.0000000e+00 0.0000000e+00 
6.1451945e-05 -3.2577696e-05 6.4222477e-05 
3.3133603e-03 4.5476825e-04 2.9653760e-03 
-3.2298107e-07 2.2408839e-08 4.1851731e-08 
2.4097711e-03 -7.3760503e-04 1.0189491e-03 
0.0000000e+00 0.0000000e+00 0.0000000e+00 
3.8179860e-06 -3.2176489e-05 2.1208112e-05 
2.3692446e-03 -1.2239446e-03 7.1861810e-04 
2.9917150e-05 3.1255540e-06 3.3416301e-05 
3.0175403e-03 -7.3563046e-04 1.2583309e-03 
-1.3976003e-07 2.5537579e-08 -1.5977667e-09 
7.0678692e-07 -6.0112147e-06 1.2841585e-05 
2.9894649e-03 -1.2846136e-03 9.2824746e-04 
-1.9462095e-03 2.7877868e-03 6.4257621e-03 
1.0168542e-03 1.9984939e-03 5.7439166e-03 
0.0000000e+00 0.0000000e+00 0.0000000e+00 
3.5270078e-03 9.0575742e-04 4.0036100e-03 
1.0844357e-03 1.8018377e-03 5.0989939e-03 
-1.8550545e-03 2.6258912e-03 5.7435613e-03 
3.5561433e-03 6.2008377e-04 3.4354571e-03 
-1.4866612e-08 -2.7677268e-08 1.0772768e-05 
3.6425916e-03 -7.2374620e-04 1.5349421e-03 
0.0000000e+00 0.0000000e+00 0.0000000e+00 
3.6212117e-03 -1.2397207e-03 1.1744944e-03 
-1.1589603e-07 8.5364364e-09 1.4998427e-08 
0.0000000e+00 0.0000000e+00 0.0000000e+00 
-9.0215235e-07 -1.5153100e-06 3.2440255e-06 
-3.1005158e-08 1.0118641e-08 7.3136563e-09 
-1.9760849e-03 2.9042356e-03 7.0902812e-03 
1.0972862e-03 2.1651338e-03 6.3799890e-03 
0.0000000e+00 0.0000000e+00 0.0000000e+00 
0.0000000e+00 0.0000000e+00 0.0000000e+00 
4.2225453e-03 -6.5568299e-04 1.8495976e-03 
3.7317926e-03 1.0831037e-03 4.5489678e-03 
4.2110905e-03 -1.1454986e-03 1.4564781e-03 
3.7747484e-03 7.9631293e-04 3.9422498e-03 
1.1869010e-03 1.9463901e-03 5.7020606e-03 
-1.8415452e-03 2.7388909e-03 6.3865404e-03 
-4.1376990e-07 -4.1579000e-07 1.0587775e-06 
-2.0197630e-03 3.0917935e-03 7.8010014e-03 
0.0000000e+00 0.0000000e+00 0.0000000e+00 
4.7563342e-03 -5.4046512e-04 2.2031337e-03 
4.7549913e-03 -1.0094111e-03 1.7755597e-03 
-5.5255445e-08 1.0685086e-08 -4.7384835e-10 
1.1692373e-03 2.3554433e-03 7.0542442e-03 
3.9135064e-03 1.2770097e-03 5.1288204e-03 
0.0000000e+00 0.0000000e+00 0.0000000e+00 
3.9731832e-03 9.8444207e-04 4.4845045e-03 
-3.9894438e-08 3.0294540e-09 5.3310902e-09 
1.2871678e-03 2.1106626e-03 6.3299066e-03 
-2.0675217e-03 3.2963734e-03 8.5447514e-03 
-1.7893335e-03 2.8565954e-03 7.0425328e-03 
-1.8612337e-07 -1.5936536e-07 3.6914571e-07 
0.0000000e+00 0.0000000e+00 0.0000000e+00 
0.0000000e+00 0.0000000e+00 0.0000000e+00 
5.2424218e-03 -3.8598309e-04 2.5962081e-03 
1.1500906e-03 2.5828255e-03 7.7637499e-03 
5.2519627e-03 -8.3734508e-04 2.1324037e-03 
-1.8220023e-03 3.0342245e-03 7.7388654e-03 
-1.2003685e-08 3.9368802e-09 3.0341269e-09 
-2.1062566e-03 3.5112549e-03 9.3328357e-03 
4.0743011e-03 1.4884094e-03 5.7405522e-03 
0.0000000e+00 0.0000000e+00 0.0000000e+00 
4.1541145e-03 1.1861762e-03 5.0604208e-03 
-7.8207634e-08 -6.1147539e-08 1.3364611e-07 
1.1383892e-03 2.8382370e-03 8.5163554e-03 
1.3748142e-03 2.3049898e-03 6.9955168e-03 
5.6802700e-03 -1.9921773e-04 3.0288969e-03 
0.0000000e+00 0.0000000e+00 0.0000000e+00 
-1.8656465e-03 3.2374137e-03 8.4754992e-03 
5.7019200e-03 -6.3562335e-04 2.5272765e-03 
1.3652808e-03 2.5269806e-03 7.6914323e-03 
-1.3181509e-08 9.9800934e-10 1.8573998e-09 
-2.1376696e-03 3.7265299e-03 1.0162749e-02 
1.1299093e-03 3.0937572e-03 9.3079647e-03 
4.2145834e-03 1.7178303e-03 6.3814349e-03 
0.0000000e+00 0.0000000e+00 0.0000000e+00 
-1.9098660e-03 3.4552882e-03 9.2546921e-03 
4.3188049e-03 1.4032177e-03 5.6675645e-03 
6.0707661e-03 1.3851894e-05 3.5006944e-03 
-2.1335472e-08 4.3415938e-09 -1.4187343e-10 
6.1060926e-03 -4.1016305e-04 2.9601383e-03 
-3.0715448e-08 -2.2712031e-08 4.8810023e-08 
0.0000000e+00 0.0000000e+00 0.0000000e+00 
1.3558670e-03 2.7832370e-03 8.4335189e-03 
0.0000000e+00 0.0000000e+00 0.0000000e+00 
1.1231871e-03 3.3400159e-03 1.0140002e-02 
4.3428023e-03 1.9379773e-03 7.0408355e-03 
-1.9540356e-03 3.6752229e-03 1.0077310e-02 
-2.1634395e-03 3.9335657e-03 1.1034454e-02 
6.4159962e-03 2.4837838e-04 4.0105241e-03 
1.3375288e-03 3.0407959e-03 9.2183398e-03 
4.4690403e-03 1.6374902e-03 6.3024173e-03 
6.4668292e-03 -1.6588424e-04 3.4305979e-03 
-4.5803716e-09 1.5054713e-09 1.2232763e-09 
0.0000000e+00 0.0000000e+00 0.0000000e+00 
1.1048187e-03 -1.3005417e-03 1.3396602e-04 
1.1920092e-03 -8.9931820e-04 2.8546210e-04 
7.5743021e-04 -1.0397441e-03 8.9291047e-05 
1.5316295e-03 -1.5604411e-03 1.9815678e-04 
1.6130509e-03 -1.1083714e-03 3.8034940e-04 
8.4778183e-04 -6.8973663e-04 2.0976434e-04 
2.1138492e-03 -1.3048584e-03 4.9797416e-04 
2.0402470e-03 -1.8066574e-03 2.8565503e-04 
4.8430925e-04 -7.8935944e-04 6.0048038e-05 
4.3337368e-03 2.2063206e-03 7.7671460e-03 
-1.1289261e-08 -8.1427434e-09 1.7606158e-08 
5.7471317e-04 -4.8998289e-04 1.4975588e-04 
2.6943176e-03 -1.4755446e-03 6.4178230e-04 
2.6300207e-03 -2.0258385e-03 3.9984481e-04 
2.7834499e-04 -5.5865152e-04 4.2012151e-05 
0.0000000e+00 0.0000000e+00 0.0000000e+00 
3.6515642e-04 -3.0872520e-04 1.0217579e-04 
-4.1841584e-09 3.0249331e-10 6.3065625e-10 
3.3515841e-03 -1.6066624e-03 8.1500685e-04 
0.0000000e+00 0.0000000e+00 0.0000000e+00 
6.7187236e-03 5.0062616e-04 4.5567336e-03 
3.2976377e-03 -2.2050522e-03 5.4365158e-04 
1.3171438e-04 -3.5482610e-04 3.0985659e-05 
1.3137286e-03 3.2909999e-03 1.0045371e-02 
1.1174998e-03 3.5705501e-03 1.1013441e-02 
6.7870938e-03 9.3522634e-05 3.9378428e-03 
4.3385662e-03 2.4857186e-03 8.5212737e-03 
-1.9973365e-03 3.8877879e-03 1.0943380e-02 
4.5755408e-03 1.8799953e-03 6.9655655e-03 
2.1038305e-04 -1.5369986e-04 6.4247331e-05 
4.0808655e-03 -1.6844639e-03 1.0205633e-03 
-2.1849363e-03 4.1260007e-03 1.1948463e-02 
3.7373920e-05 -1.8379706e-04 2.2947514e-05 
4.0382249e-03 -2.3325481e-03 7.1965618e-04 
1.0113332e-04 -3.3060984e-05 3.4097277e-05 
4.5867646e-03 2.1461602e-03 7.6722652e-03 
4.8757121e-03 -1.6951379e-03 1.2605321e-03 
-8.0490858e-09 1.7156752e-09 -4.4346655e-11 
0.0000000e+00 0.0000000e+00 0.0000000e+00 
-1.0321908e-06 -5.9614904e-05 1.3973947e-05 
4.8465305e-03 -2.3986432e-03 9.3086646e-04 
4.3448019e-03 2.7576091e-03 9.3134493e-03 
6.9818236e-03 7.6775555e-04 5.1370850e-03 
7.0698946e-03 3.6551015e-04 4.4805766e-03 
-3.8836045e-09 -2.8221501e-09 6.1954299e-09 
1.2871496e-03 3.5266201e-03 1.0915000e-02 
2.2641952e-05 7.9930442e-06 1.0506972e-05 
0.0000000e+00 0.0000000e+00 0.0000000e+00 
4.5772372e-03 2.4264380e-03 8.4218280e-03 
5.6793527e-03 -1.6768257e-03 1.5377548e-03 
1.1124698e-03 3.7808514e-03 1.1929153e-02 
0.0000000e+00 0.0000000e+00 0.0000000e+00 
5.6606955e-03 -2.3430560e-03 1.1774288e-03 
-2.0389943e-03 4.0861340e-03 1.1853063e-02 
8.5903303e-06 -2.3945629e-06 3.1383217e-06 
-1.7178157e-09 5.6546173e-10 4.7913196e-10 
0.0000000e+00 0.0000000e+00 0.0000000e+00 
4.3520494e-03 3.0160684e-03 1.0145072e-02 
-2.2031500e-03 4.2994581e-03 1.2905451e-02 
7.2078500e-03 1.0474599e-03 5.7487735e-03 
0.0000000e+00 0.0000000e+00 0.0000000e+00 
6.4309826e-03 -1.5865004e-03 1.8530837e-03 
6.4245239e-03 -2.2236365e-03 1.4597331e-03 
7.3178201e-03 6.4836349e-04 5.0569703e-03 
4.5652590e-03 2.7022695e-03 9.2101078e-03 
-1.2775807e-09 8.2705627e-11 2.0816281e-10 
0.0000000e+00 0.0000000e+00 0.0000000e+00 
3.6512740e-06 -9.0465079e-07 1.0256254e-06 
1.2595855e-03 3.7425642e-03 1.1827760e-02 
0.0000000e+00 0.0000000e+00 0.0000000e+00 
7.1286610e-03 -1.4341155e-03 2.2073162e-03 
7.1350448e-03 -2.0482631e-03 1.7789927e-03 
-1.2483405e-09 -9.4708053e-10 2.1139845e-09 
1.1079068e-03 3.9679855e-03 1.2887957e-02 
7.3986812e-03 1.3373924e-03 6.3886563e-03 
0.0000000e+00 0.0000000e+00 0.0000000e+00 
-2.0783404e-03 4.2655431e-03 1.2806704e-02 
4.5512281e-03 2.9657579e-03 1.0038902e-02 
4.3596942e-03 3.2561915e-03 1.1017593e-02 
7.5327205e-03 9.4077439e-04 5.6646178e-03 
1.4916011e-06 -3.7712155e-07 3.6104339e-07 
0.0000000e+00 0.0000000e+00 0.0000000e+00 
7.7695870e-03 -1.2291154e-03 2.6010270e-03 
7.7900710e-03 -1.8238006e-03 2.1359005e-03 
-2.2187352e-03 4.4512469e-03 1.3906130e-02 
-2.9687461e-09 6.6027261e-10 -1.4763234e-11 
0.0000000e+00 0.0000000e+00 0.0000000e+00 
7.5618741e-03 1.6032197e-03 7.0505408e-03 
1.2323132e-03 3.9354851e-03 1.2784240e-02 
5.8739982e-07 -1.5304597e-07 1.3201861e-07 
7.7161267e-03 1.2416525e-03 6.3004252e-03 
4.5356890e-03 3.2115583e-03 1.0909323e-02 
8.3511928e-03 -9.8068581e-04 3.0342652e-03 
0.0000000e+00 0.0000000e+00 0.0000000e+00 
8.3874268e-03 -1.5577718e-03 2.5307839e-03 
4.3672225e-03 3.4743166e-03 1.1932250e-02 
7.5628962e-03 1.9017899e-03 7.7755926e-03 
1.1037370e-03 4.1303472e-03 1.3890608e-02 
-2.1148028e-03 4.4230833e-03 1.3804765e-02 
-6.3202643e-10 2.0851147e-10 1.8242724e-10 
0.0000000e+00 0.0000000e+00 0.0000000e+00 
-3.7589545e-10 1.9451758e-11 6.6750994e-11 
0.0000000e+00 0.0000000e+00 0.0000000e+00 
-3.7344081e-10 -3.0822611e-10 6.9776152e-10 
0.0000000e+00 0.0000000e+00 0.0000000e+00 
8.8719893e-03 -6.9767609e-04 3.5065208e-03 
7.5758407e-03 2.2026873e-03 8.5321441e-03 
7.8374790e-03 1.5315352e-03 6.9620013e-03 
8.9257890e-03 -1.2580490e-03 2.9636477e-03 
2.2288842e-07 -5.9958801e-08 4.8557890e-08 
0.0000000e+00 0.0000000e+00 0.0000000e+00 
4.5193327e-03 3.4356385e-03 1.1822358e-02 
7.8436648e-03 1.8365391e-03 7.6713492e-03 
1.2062845e-03 4.1034864e-03 1.3785036e-02 
-2.2320799e-03 4.5801206e-03 1.4951173e-02 
4.3742820e-03 3.6679944e-03 1.2890088e-02 
7.5889528e-03 2.4879242e-03 9.3255863e-03 
9.3318978e-03 -3.8836125e-04 4.0167128e-03 
9.4050523e-03 -9.3236635e-04 3.4341349e-03 
7.8316443e-03 2.1411611e-03 8.4226262e-03 
8.1497930e-08 -2.2613019e-08 1.7597204e-08 
0.0000000e+00 0.0000000e+00 0.0000000e+00 
-2.1478822e-03 4.5573367e-03 1.4847734e-02 
1.0999679e-03 4.2674886e-03 1.4937786e-02 
7.6022116e-03 2.7545521e-03 1.0157611e-02 
4.5028226e-03 3.6352556e-03 1.2778901e-02 
9.7322026e-03 -6.0205206e-05 4.5631779e-03 
7.8193005e-03 2.4317384e-03 9.2125228e-03 
9.8263249e-03 -5.8789045e-04 3.9414582e-03 
-1.0713432e-09 2.4779415e-10 -5.2075965e-12 
0.0000000e+00 0.0000000e+00 0.0000000e+00 
-1.0319333e-10 -9.7435310e-11 2.2269027e-10 
0.0000000e+00 0.0000000e+00 0.0000000e+00 
4.3806690e-03 3.8359077e-03 1.3891993e-02 
1.1822346e-03 4.2459173e-03 1.4830717e-02 
-1.0682604e-10 3.3767949e-12 2.0804226e-11 
0.0000000e+00 0.0000000e+00 0.0000000e+00 
1.0075283e-02 2.8025854e-04 5.1436638e-03 
7.8067910e-03 2.7041964e-03 1.0042216e-02 
7.6153907e-03 2.9996720e-03 1.1029837e-02 
1.0191695e-02 -2.3094815e-04 4.4843373e-03 
2.8718569e-08 -8.2108489e-09 6.2143424e-09 
-2.2790105e-10 7.5461616e-11 6.7598455e-11 
-2.2433701e-03 4.6860944e-03 1.6041165e-02 
0.0000000e+00 0.0000000e+00 0.0000000e+00 
0.0000000e+00 0.0000000e+00 0.0000000e+00 
1.7937296e-03 -2.1008786e-03 1.3006543e-04 
1.9076166e-03 -1.4989233e-03 2.8422850e-04 
1.2659138e-03 -1.7207111e-03 8.5743704e-05 
2.4133397e-03 -2.4626341e-03 1.9426296e-04 
2.5146313e-03 -1.8154038e-03 3.7887090e-04 
1.3900488e-03 -1.1695347e-03 2.0901354e-04 
3.2082279e-03 -2.1025117e-03 4.9655774e-04 
3.1207842e-03 -2.7907977e-03 2.8222159e-04 
8.3148008e-04 -1.3380119e-03 5.7104382e-05 
9.6205377e-04 -8.4419630e-04 1.4964429e-04 
3.9832434e-03 -2.3446092e-03 6.4077566e-04 
3.9101555e-03 -3.0714758e-03 3.9739138e-04 
4.8966933e-04 -9.6883217e-04 3.9819548e-05 
4.4867517e-03 3.8088693e-03 1.3779745e-02 
6.2091165e-04 -5.4024166e-04 1.0277011e-04 
4.8329760e-03 -2.5271806e-03 8.1474474e-04 
1.0364233e-02 6.2736927e-04 5.7553267e-03 
4.7743991e-03 -3.2924644e-03 5.4272969e-04 
2.3783505e-04 -6.2917557e-04 2.9625633e-05 
-2.1771251e-03 4.6681943e-03 1.5936062e-02 
1.0503880e-02 1.3305868e-04 5.0609475e-03 
1.0966660e-03 4.3800045e-03 1.6030062e-02 
7.7941581e-03 2.9554078e-03 1.0912913e-02 
3.6119888e-04 -2.7574121e-04 6.5505665e-05 
5.7501593e-03 -2.6369113e-03 1.0212692e-03 
7.6281945e-03 3.2209102e-03 1.1943707e-02 
7.2191353e-05 -3.3536926e-04 2.2474944e-05 
5.7064225e-03 -3.4433086e-03 7.2081527e-04 
1.7462554e-04 -7.0011942e-05 3.5854635e-05 
4.3862998e-03 3.9777844e-03 1.4938703e-02 
6.7267735e-03 -2.6611397e-03 1.2620649e-03 
-2.5977031e-11 -2.9963945e-11 6.8770940e-11 