# vtk DataFile Version 4.0
vtk output
ASCII
DATASET UNSTRUCTURED_GRID
POINTS 2524 float
-1.3600737e-02 9.2723727e-02 1.0000000e-01 
-1.1117464e-02 9.2369959e-02 1.0000000e-01 
-1.4838499e-02 9.0371020e-02 1.0000000e-01 
-1.2160867e-02 9.4958462e-02 1.0000000e-01 
-1.2428896e-02 9.0104103e-02 1.0000000e-01 
-9.5961727e-03 9.4500601e-02 1.0000000e-01 
-1.3518542e-02 8.7723628e-02 1.0000000e-01 
-1.5864562e-02 8.7918580e-02 1.0000000e-01 
-1.0530048e-02 9.7057916e-02 1.0000000e-01 
-7.8788539e-03 9.6476652e-02 1.0000000e-01 
-1.4376495e-02 8.5250191e-02 1.0000000e-01 
-1.6670976e-02 8.5385412e-02 1.0000000e-01 
-8.7209158e-03 9.9005811e-02 1.0000000e-01 
-5.9811245e-03 9.8280147e-02 1.0000000e-01 
-1.4994953e-02 8.2706288e-02 1.0000000e-01 
-1.7251492e-02 8.2791135e-02 1.0000000e-01 
-6.7474889e-03 1.0078707e-01 1.0000000e-01 
-3.9202408e-03 9.9894680e-02 1.0000000e-01 
-1.3600737e-02 9.2723727e-02 8.7499991e-02 
-1.5368291e-02 8.0115035e-02 1.0000000e-01 
-1.1117464e-02 9.2369959e-02 8.7499991e-02 
-1.2160867e-02 9.4958462e-02 8.7499991e-02 
-1.4838499e-02 9.0371020e-02 8.7499991e-02 
-1.2428894e-02 9.0104103e-02 8.7499991e-02 
-1.7601609e-02 8.0155857e-02 1.0000000e-01 
-4.6250601e-03 1.0238787e-01 1.0000000e-01 
-9.5961727e-03 9.4500601e-02 8.7499991e-02 
-1.3518536e-02 8.7723650e-02 8.7499991e-02 
-1.0530052e-02 9.7057909e-02 8.7499991e-02 
-1.5864562e-02 8.7918587e-02 8.7499991e-02 
-7.8788549e-03 9.6476652e-02 8.7499991e-02 
-1.4376482e-02 8.5250244e-02 8.7499991e-02 
-1.7149430e-03 1.0130557e-01 1.0000000e-01 
-8.7209288e-03 9.9005796e-02 8.7499991e-02 
-1.6670974e-02 8.5385419e-02 8.7499991e-02 
-1.5493116e-02 7.7500008e-02 1.0000000e-01 
-5.9811310e-03 9.8280139e-02 8.7499991e-02 
-1.7718617e-02 7.7499993e-02 1.0000000e-01 
-2.3700756e-03 1.0379581e-01 1.0000000e-01 
-1.4994934e-02 8.2706384e-02 8.7499991e-02 
-6.7475229e-03 1.0078704e-01 8.7499991e-02 
-1.7251486e-02 8.2791157e-02 8.7499991e-02 
6.1471661e-04 1.0250000e-01 1.0000000e-01 
-3.9202627e-03 9.9894665e-02 8.7499991e-02 
-1.5368290e-02 8.0115050e-02 8.7499991e-02 
-1.5368292e-02 7.4884973e-02 1.0000000e-01 
-4.6251309e-03 1.0238782e-01 8.7499991e-02 
-1.7601604e-02 8.0155902e-02 8.7499991e-02 
-1.7601607e-02 7.4844137e-02 1.0000000e-01 
-0.0000000e+00 1.0500000e-01 1.0000000e-01 
-1.7149959e-03 1.0130554e-01 8.7499991e-02 
3.2798690e-03 1.0250000e-01 1.0000000e-01 
-1.5493116e-02 7.7499904e-02 8.7499991e-02 
-2.3702064e-03 1.0379574e-01 8.7499991e-02 
-1.7718617e-02 7.7500083e-02 8.7499991e-02 
2.6781005e-03 1.0500000e-01 1.0000000e-01 
-1.4994955e-02 7.2293721e-02 1.0000000e-01 
-1.7251490e-02 7.2208859e-02 1.0000000e-01 
6.1471661e-04 1.0250000e-01 8.7499991e-02 
-1.5368287e-02 7.4884921e-02 8.7499991e-02 
6.0768481e-03 1.0250000e-01 1.0000000e-01 
-0.0000000e+00 1.0500000e-01 8.7499991e-02 
-1.7601607e-02 7.4844129e-02 8.7499991e-02 
5.4879682e-03 1.0500000e-01 1.0000000e-01 
-1.4376498e-02 6.9749817e-02 1.0000000e-01 
3.2798694e-03 1.0250000e-01 8.7499991e-02 
-1.6670974e-02 6.9614582e-02 1.0000000e-01 
2.6781012e-03 1.0500000e-01 8.7499991e-02 
-1.4994950e-02 7.2293699e-02 8.7499991e-02 
-1.7251475e-02 7.2208777e-02 8.7499991e-02 
9.0098707e-03 1.0250000e-01 1.0000000e-01 
-1.3600737e-02 9.2723727e-02 7.4999996e-02 
-1.1117464e-02 9.2369959e-02 7.4999996e-02 
-1.2160868e-02 9.4958462e-02 7.4999996e-02 
-1.4838499e-02 9.0371020e-02 7.4999996e-02 
-1.2428894e-02 9.0104103e-02 7.4999996e-02 
8.4337983e-03 1.0500000e-01 1.0000000e-01 
6.0768486e-03 1.0250000e-01 8.7499991e-02 
-9.5961727e-03 9.4500601e-02 7.4999996e-02 
-1.3518546e-02 6.7276381e-02 1.0000000e-01 
-1.3518536e-02 8.7723643e-02 7.4999996e-02 
-1.0530052e-02 9.7057909e-02 7.4999996e-02 
-1.5864560e-02 8.7918587e-02 7.4999996e-02 
-1.5864560e-02 6.7081414e-02 1.0000000e-01 
5.4879687e-03 1.0500000e-01 8.7499991e-02 
-7.8788558e-03 9.6476652e-02 7.4999996e-02 
-1.4376483e-02 8.5250236e-02 7.4999996e-02 
-1.4376496e-02 6.9749802e-02 8.7499991e-02 
-8.7209279e-03 9.9005796e-02 7.4999996e-02 
-1.6670972e-02 8.5385419e-02 7.4999996e-02 
-1.6670963e-02 6.9614545e-02 8.7499991e-02 
-5.9811347e-03 9.8280132e-02 7.4999996e-02 
-1.4994935e-02 8.2706377e-02 7.4999996e-02 
-6.7475205e-03 1.0078704e-01 7.4999996e-02 
-1.7251484e-02 8.2791165e-02 7.4999996e-02 
1.2083010e-02 1.0250000e-01 1.0000000e-01 
9.0098716e-03 1.0250000e-01 8.7499991e-02 
-3.9202701e-03 9.9894658e-02 7.4999996e-02 
-1.2428899e-02 6.4895906e-02 1.0000000e-01 
1.1519642e-02 1.0500000e-01 1.0000000e-01 
-1.5368290e-02 8.0115058e-02 7.4999996e-02 
-1.4838495e-02 6.4628974e-02 1.0000000e-01 
8.4337983e-03 1.0500000e-01 8.7499991e-02 
-4.6251258e-03 1.0238782e-01 7.4999996e-02 
-1.7601606e-02 8.0155894e-02 7.4999996e-02 
-1.3518546e-02 6.7276374e-02 8.7499991e-02 
-1.5864553e-02 6.7081392e-02 8.7499991e-02 
-1.7150094e-03 1.0130554e-01 7.4999996e-02 
-1.5493116e-02 7.7499934e-02 7.4999996e-02 
-2.3701969e-03 1.0379574e-01 7.4999996e-02 
-1.7718617e-02 7.7500060e-02 7.4999996e-02 
1.2083010e-02 1.0250000e-01 8.7499991e-02 
-1.1117469e-02 6.2630050e-02 1.0000000e-01 
6.1471661e-04 1.0250000e-01 7.4999996e-02 
-1.3600733e-02 6.2276267e-02 1.0000000e-01 
1.5300166e-02 1.0250000e-01 1.0000000e-01 
-1.2428900e-02 6.4895906e-02 8.7499991e-02 
1.1519643e-02 1.0500000e-01 8.7499991e-02 
-1.5368288e-02 7.4884929e-02 7.4999996e-02 
-1.4838492e-02 6.4628966e-02 8.7499991e-02 
1.4749384e-02 1.0500000e-01 1.0000000e-01 
-0.0000000e+00 1.0500000e-01 7.4999996e-02 
-1.7601607e-02 7.4844122e-02 7.4999996e-02 
3.2798708e-03 1.0250000e-01 7.4999996e-02 
2.6781023e-03 1.0500000e-01 7.4999996e-02 
-1.4994948e-02 7.2293691e-02 7.4999996e-02 
-9.5961774e-03 6.0499407e-02 1.0000000e-01 
-1.7251475e-02 7.2208785e-02 7.4999996e-02 
-1.1117470e-02 6.2630050e-02 8.7499991e-02 
-1.2160863e-02 6.0041532e-02 1.0000000e-01 
-1.3600732e-02 6.2276267e-02 8.7499991e-02 
1.5300167e-02 1.0250000e-01 8.7499991e-02 
6.0768500e-03 1.0250000e-01 7.4999996e-02 
1.4749384e-02 1.0500000e-01 8.7499991e-02 
1.8665034e-02 1.0250000e-01 1.0000000e-01 
5.4879701e-03 1.0500000e-01 7.4999996e-02 
-1.4376494e-02 6.9749802e-02 7.4999996e-02 
1.8126702e-02 1.0500000e-01 1.0000000e-01 
-1.6670963e-02 6.9614545e-02 7.4999996e-02 
-7.8788595e-03 5.8523357e-02 1.0000000e-01 
-9.5961811e-03 6.0499411e-02 8.7499991e-02 
-1.0530042e-02 5.7942081e-02 1.0000000e-01 
-1.2160863e-02 6.0041532e-02 8.7499991e-02 
9.0098726e-03 1.0250000e-01 7.4999996e-02 
8.4338002e-03 1.0500000e-01 7.4999996e-02 
-1.3518545e-02 6.7276374e-02 7.4999996e-02 
-1.5864553e-02 6.7081392e-02 7.4999996e-02 
1.8665034e-02 1.0250000e-01 8.7499991e-02 
1.8126702e-02 1.0500000e-01 8.7499991e-02 
-5.9811305e-03 5.6719862e-02 1.0000000e-01 
-7.8788726e-03 5.8523368e-02 8.7499991e-02 
-8.7209092e-03 5.5994183e-02 1.0000000e-01 
-1.0530042e-02 5.7942081e-02 8.7499991e-02 
2.2181055e-02 1.0250000e-01 1.0000000e-01 
1.2083011e-02 1.0250000e-01 7.4999996e-02 
2.1655027e-02 1.0500000e-01 1.0000000e-01 
-1.2428900e-02 6.4895906e-02 7.4999996e-02 
-1.3600738e-02 9.2723727e-02 6.2499993e-02 
1.1519643e-02 1.0500000e-01 7.4999996e-02 
-1.1117464e-02 9.2369959e-02 6.2499993e-02 
-1.2160869e-02 9.4958462e-02 6.2499993e-02 
-1.4838499e-02 9.0371020e-02 6.2499993e-02 
-1.2428895e-02 9.0104103e-02 6.2499993e-02 
-1.4838493e-02 6.4628966e-02 7.4999996e-02 
-9.5961727e-03 9.4500601e-02 6.2499993e-02 
-1.3518537e-02 8.7723643e-02 6.2499993e-02 
-1.0530052e-02 9.7057909e-02 6.2499993e-02 
-1.5864560e-02 8.7918587e-02 6.2499993e-02 
-7.8788577e-03 9.6476644e-02 6.2499993e-02 
-1.4376485e-02 8.5250229e-02 6.2499993e-02 
-1.6670970e-02 8.5385427e-02 6.2499993e-02 
-8.7209269e-03 9.9005803e-02 6.2499993e-02 
-5.9811398e-03 9.8280132e-02 6.2499993e-02 
-1.4994938e-02 8.2706362e-02 6.2499993e-02 
-3.9202473e-03 5.5105329e-02 1.0000000e-01 
-5.9811682e-03 5.6719895e-02 8.7499991e-02 
-1.7251484e-02 8.2791172e-02 6.2499993e-02 
-6.7475168e-03 1.0078704e-01 6.2499993e-02 
-8.7209111e-03 5.5994183e-02 8.7499991e-02 
-6.7474819e-03 5.4212932e-02 1.0000000e-01 
2.2181056e-02 1.0250000e-01 8.7499991e-02 
-1.1117470e-02 6.2630050e-02 7.4999996e-02 
2.1655027e-02 1.0500000e-01 8.7499991e-02 
-3.9202808e-03 9.9894650e-02 6.2499993e-02 
-1.3600732e-02 6.2276267e-02 7.4999996e-02 
1.5300168e-02 1.0250000e-01 7.4999996e-02 
-1.5368289e-02 8.0115065e-02 6.2499993e-02 
1.4749385e-02 1.0500000e-01 7.4999996e-02 
-4.6251179e-03 1.0238782e-01 6.2499993e-02 
-1.7601606e-02 8.0155887e-02 6.2499993e-02 
-1.7150288e-03 1.0130552e-01 6.2499993e-02 
-1.5493116e-02 7.7499963e-02 6.2499993e-02 
2.5851376e-02 1.0250000e-01 1.0000000e-01 
-2.3701836e-03 1.0379575e-01 6.2499993e-02 
-1.7718617e-02 7.7500030e-02 6.2499993e-02 
-1.7149500e-03 5.3694431e-02 1.0000000e-01 
-3.9203316e-03 5.5105384e-02 8.7499991e-02 
2.5337499e-02 1.0500000e-01 1.0000000e-01 
-9.5961811e-03 6.0499411e-02 7.4999996e-02 
-6.7474898e-03 5.4212935e-02 8.7499991e-02 
-4.6250527e-03 5.2612130e-02 1.0000000e-01 
-1.2160863e-02 6.0041532e-02 7.4999996e-02 
6.1471661e-04 1.0250000e-01 6.2499993e-02 
-1.5368289e-02 7.4884936e-02 6.2499993e-02 
-0.0000000e+00 1.0500000e-01 6.2499993e-02 
-1.7601606e-02 7.4844114e-02 6.2499993e-02 
1.8665036e-02 1.0250000e-01 7.4999996e-02 
1.8126704e-02 1.0500000e-01 7.4999996e-02 
3.2798727e-03 1.0250000e-01 6.2499993e-02 
2.5851376e-02 1.0250000e-01 8.7499991e-02 
6.1471661e-04 5.2499998e-02 1.0000000e-01 
-1.7151133e-03 5.3694524e-02 8.7499991e-02 
2.6781042e-03 1.0500000e-01 6.2499993e-02 
2.5337499e-02 1.0500000e-01 8.7499991e-02 
-1.4994946e-02 7.2293676e-02 6.2499993e-02 
-7.8788716e-03 5.8523368e-02 7.4999996e-02 
-1.7251477e-02 7.2208792e-02 6.2499993e-02 
-1.0530043e-02 5.7942081e-02 7.4999996e-02 
-4.6250741e-03 5.2612145e-02 8.7499991e-02 
-2.3700679e-03 5.1204182e-02 1.0000000e-01 
6.0768514e-03 1.0250000e-01 6.2499993e-02 
3.2995713e-03 5.2499998e-02 1.0000000e-01 
5.4879719e-03 1.0500000e-01 6.2499993e-02 
-1.4376492e-02 6.9749795e-02 6.2499993e-02 
-1.6670965e-02 6.9614552e-02 6.2499993e-02 
2.9678803e-02 1.0250000e-01 1.0000000e-01 
[...]
POINT_DATA 2524
FIELD FieldData 1
DISPLACEMENT 3 2524  float
1.2178826e-03 -1.5912475e-03 4.0008275e-05 
1.3402279e-03 -8.0945226e-04 1.7178002e-04 
1.9927660e-03 -2.0672737e-03 9.3650371e-05 
6.3708198e-04 -1.1356442e-03 4.2279298e-06 
2.1065464e-03 -1.1490372e-03 2.4082774e-04 
7.6099258e-04 -4.9756415e-04 1.1894976e-04 
3.0660653e-03 -1.4852331e-03 3.2927995e-04 
2.9664102e-03 -2.5289685e-03 1.6793760e-04 
2.3582122e-04 -7.3068321e-04 -1.6739239e-05 
3.5314533e-04 -2.3908055e-04 7.9084755e-05 
4.2137159e-03 -1.7844515e-03 4.4019980e-04 
4.1324818e-03 -2.9395064e-03 2.6526823e-04 
-8.5159581e-06 -3.9998794e-04 -2.6110209e-05 
9.3818380e-05 -5.2140484e-05 4.8973587e-05 
5.5323038e-03 -2.0142992e-03 5.7656592e-04 
5.4730647e-03 -3.2623904e-03 3.8745539e-04 
-1.2449255e-04 -1.5917544e-04 -2.7179518e-05 
-4.3847162e-05 5.4415730e-05 2.5679528e-05 
1.7828381e-03 -2.1801635e-03 9.4115087e-05 
6.9912858e-03 -2.1486655e-03 7.4148038e-04 
1.9058485e-03 -1.3230708e-03 2.0778153e-04 
1.1065353e-03 -1.6422257e-03 5.9866670e-05 
2.6548237e-03 -2.7326203e-03 1.4455376e-04 
2.7642867e-03 -1.7469029e-03 2.7437048e-04 
6.9584576e-03 -3.4635453e-03 5.3547532e-04 
-1.4477414e-04 -1.5080218e-05 -2.3320348e-05 
1.2368948e-03 -9.2171214e-04 1.5669248e-04 
3.8175136e-03 -2.1608737e-03 3.5954764e-04 
6.1311870e-04 -1.1495467e-03 3.8702026e-05 
3.7259515e-03 -3.2647685e-03 2.1411292e-04 
7.4286090e-04 -5.7014124e-04 1.1795017e-04 
5.0603361e-03 -2.5300749e-03 4.6623239e-04 
-8.6277360e-05 8.2860752e-05 7.7126242e-06 
2.8209103e-04 -7.2679063e-04 2.7426577e-05 
4.9894261e-03 -3.7401312e-03 3.0544426e-04 
8.5173380e-03 -2.1696761e-03 9.3034504e-04 
4.0188871e-04 -2.8879216e-04 8.8448847e-05 
8.5689789e-03 -3.5352849e-03 7.1434648e-04 
-1.0583295e-04 3.5319918e-05 -1.9148456e-05 
6.4767106e-03 -2.8198133e-03 5.9710501e-04 
8.7378830e-05 -3.9113589e-04 2.2817010e-05 
6.4280438e-03 -4.1232090e-03 4.2072654e-04 
-2.9482388e-05 1.8841125e-05 1.0550580e-05 
1.8718610e-04 -9.0016540e-05 6.5243694e-05 
8.0404105e-03 -2.9984447e-03 7.5477519e-04 
1.0141658e-02 -2.0876101e-03 1.1462674e-03 
-3.1971084e-07 -1.5130828e-04 2.1590828e-05 
8.0137867e-03 -4.3813991e-03 5.6059746e-04 
1.0208971e-02 -3.4987717e-03 9.1265043e-04 
0.0000000e+00 0.0000000e+00 0.0000000e+00 
6.9199603e-05 2.2808668e-05 4.5774515e-05 
-1.3754294e-05 9.7855047e-07 2.3706887e-06 
9.7211199e-03 -3.0408795e-03 9.4411348e-04 
-1.0568586e-05 -6.7546439e-06 2.0055117e-05 
9.7356476e-03 -4.4950456e-03 7.1569340e-04 
0.0000000e+00 0.0000000e+00 0.0000000e+00 
1.1767497e-02 -1.8543788e-03 1.3877524e-03 
1.1861034e-02 -3.2910544e-03 1.1307357e-03 
1.8223021e-05 1.6060329e-05 1.2268276e-05 
1.1485965e-02 -2.9394752e-03 1.1537059e-03 
-6.8180802e-06 1.2644405e-06 5.9094191e-07 
0.0000000e+00 0.0000000e+00 0.0000000e+00 
1.1512212e-02 -4.4347132e-03 9.0278115e-04 
0.0000000e+00 0.0000000e+00 0.0000000e+00 
1.3361197e-02 -1.4689071e-03 1.6554150e-03 
2.7619105e-06 -1.7402538e-06 4.1204776e-06 
1.3484750e-02 -2.9251652e-03 1.3731085e-03 
0.0000000e+00 0.0000000e+00 0.0000000e+00 
1.3241288e-02 -2.6773687e-03 1.3900177e-03 
1.3296977e-02 -4.1943295e-03 1.1166349e-03 
-3.3476997e-06 6.6012331e-07 1.6037423e-07 
2.3211718e-03 -2.7689773e-03 8.7480053e-05 
2.4816371e-03 -1.7910163e-03 2.0732047e-04 
1.5203892e-03 -2.1538350e-03 5.5283595e-05 
3.3246649e-03 -3.3873955e-03 1.3446936e-04 
3.4691340e-03 -2.2813119e-03 2.7545143e-04 
0.0000000e+00 0.0000000e+00 0.0000000e+00 
7.0103084e-07 -3.1054225e-07 1.3310203e-06 
1.6901087e-03 -1.3143045e-03 1.5375842e-04 
1.4895679e-02 -9.3693990e-04 1.9505594e-03 
4.6546892e-03 -2.7507937e-03 3.6087938e-04 
9.1291143e-04 -1.5753447e-03 3.4892539e-05 
4.5309118e-03 -3.9727893e-03 1.9900057e-04 
1.5054112e-02 -2.4107352e-03 1.6412397e-03 
0.0000000e+00 0.0000000e+00 0.0000000e+00 
1.0831256e-03 -8.8153029e-04 1.1194517e-04 
6.0303407e-03 -3.1634648e-03 4.6614735e-04 
1.4957220e-02 -2.2563348e-03 1.6538195e-03 
4.8124671e-04 -1.0618095e-03 2.3194638e-05 
5.9301779e-03 -4.4885166e-03 2.8346124e-04 
1.5046073e-02 -3.7912382e-03 1.3569490e-03 
6.4153870e-04 -5.1705528e-04 7.9069592e-05 
7.5784489e-03 -3.4842971e-03 5.9354387e-04 
2.0171677e-04 -6.3495088e-04 1.7059045e-05 
7.5035556e-03 -4.9003968e-03 3.8974077e-04 
-1.5923499e-06 3.1654281e-07 4.1904009e-08 
7.3761107e-08 -8.2106730e-08 5.2024853e-07 
3.4066779e-04 -2.3800632e-04 5.2410029e-05 
1.6349275e-02 -2.6858450e-04 2.2740855e-03 
0.0000000e+00 0.0000000e+00 0.0000000e+00 
9.2734126e-03 -3.6813654e-03 7.4506260e-04 
1.6548634e-02 -1.7595604e-03 1.9362270e-03 
0.0000000e+00 0.0000000e+00 0.0000000e+00 
4.6764751e-05 -3.0923524e-04 1.3454634e-05 
9.2249718e-03 -5.1797163e-03 5.1916536e-04 
1.6607437e-02 -1.6840289e-03 1.9459309e-03 
1.6734678e-02 -3.2356950e-03 1.6241549e-03 
1.5212057e-04 -5.3045249e-05 2.9323841e-05 
1.1084423e-02 -3.7270915e-03 9.2227641e-04 
-7.5596299e-06 -9.7599921e-05 9.1953534e-06 
1.1075852e-02 -5.3112945e-03 6.7305256e-04 
-5.8697950e-08 -1.3413287e-08 2.1684015e-07 
1.7705087e-02 5.2333687e-04 2.6263695e-03 
3.5204619e-05 1.5355825e-05 9.5617270e-06 
1.7952438e-02 -9.8492135e-04 2.2588151e-03 
-7.3183622e-07 1.4642302e-07 9.0303480e-09 
1.8170018e-02 -9.7186188e-04 2.2668361e-03 
0.0000000e+00 0.0000000e+00 0.0000000e+00 
1.2970609e-02 -3.6355536e-03 1.1282094e-03 
1.8342150e-02 -2.5399067e-03 1.9187500e-03 
0.0000000e+00 0.0000000e+00 0.0000000e+00 
0.0000000e+00 0.0000000e+00 0.0000000e+00 
1.2977012e-02 -5.2377270e-03 8.5831806e-04 
1.3646827e-05 -2.7964361e-06 2.9719076e-06 
0.0000000e+00 0.0000000e+00 0.0000000e+00 
1.4840511e-02 -3.3672850e-03 1.3628225e-03 
1.8950393e-02 1.4244019e-03 3.0072450e-03 
1.4879380e-02 -4.9854605e-03 1.0696778e-03 
1.9627338e-02 -1.3371934e-04 2.6166060e-03 
1.9253578e-02 -1.0089856e-04 2.6093358e-03 
1.9851817e-02 -1.7176898e-03 2.2410627e-03 
-5.8329942e-08 3.5928824e-09 9.0417245e-08 
5.7683696e-06 -1.2016661e-06 9.8910607e-07 
0.0000000e+00 0.0000000e+00 0.0000000e+00 
-3.2519628e-07 6.5870417e-08 8.7856727e-10 
0.0000000e+00 0.0000000e+00 0.0000000e+00 
1.6667664e-02 -2.9285976e-03 1.6266173e-03 
0.0000000e+00 0.0000000e+00 0.0000000e+00 
1.6742596e-02 -4.5645330e-03 1.3088016e-03 
2.0076027e-02 2.4193325e-03 3.4160106e-03 
2.0965824e-02 8.1501267e-04 2.9948342e-03 
2.0443343e-02 8.7816193e-04 2.9876656e-03 
2.1250706e-02 -7.8384881e-04 2.5911147e-03 
2.3508023e-06 -5.0858245e-07 3.5505920e-07 
0.0000000e+00 0.0000000e+00 0.0000000e+00 
1.8425694e-02 -2.3291167e-03 1.9200981e-03 
1.8542064e-02 -3.9825491e-03 1.5761326e-03 
-3.6147870e-08 5.2112190e-09 3.6930793e-08 
0.0000000e+00 0.0000000e+00 0.0000000e+00 
2.1075709e-02 3.4924820e-03 3.8514552e-03 
2.2175532e-02 1.8581547e-03 3.4005723e-03 
2.1515599e-02 1.9379667e-03 3.3932175e-03 
2.2529144e-02 2.4639544e-04 2.9685190e-03 
-1.3989596e-07 2.8852455e-08 -5.5365545e-10 
9.2148298e-07 -2.0901155e-07 1.3261659e-07 
0.0000000e+00 0.0000000e+00 0.0000000e+00 
2.0091143e-02 -1.5817838e-03 2.2433789e-03 
2.8506049e-03 -3.3641406e-03 9.5045849e-05 
0.0000000e+00 0.0000000e+00 0.0000000e+00 
3.0314620e-03 -2.2405239e-03 2.0995690e-04 
1.9146942e-03 -2.6625195e-03 6.3456828e-05 
3.9991871e-03 -4.0568071e-03 1.4077744e-04 
4.1595316e-03 -2.8078882e-03 2.7898652e-04 
2.0255672e-02 -3.2514022e-03 1.8719075e-03 
2.1094370e-03 -1.6778563e-03 1.5504507e-04 
5.4915659e-03 -3.3424455e-03 3.6483066e-04 
1.1864817e-03 -1.9886801e-03 4.2930656e-05 
5.3559621e-03 -4.7022603e-03 2.0355600e-04 
1.3858840e-03 -1.1545933e-03 1.1155650e-04 
7.0157335e-03 -3.8063729e-03 4.7009598e-04 
6.9071697e-03 -5.2633099e-03 2.8600858e-04 
6.5234676e-04 -1.3755077e-03 3.0329513e-05 
8.4466633e-04 -7.0056046e-04 7.6920958e-05 
8.7114647e-03 -4.1639702e-03 5.9723866e-04 
2.1945421e-02 4.6282462e-03 4.3118615e-03 
2.3249652e-02 2.9791838e-03 3.8322657e-03 
8.6309863e-03 -5.7063401e-03 3.9042797e-04 
2.9164102e-04 -8.5026852e-04 2.2572534e-05 
2.3680208e-02 1.3578156e-03 3.3723868e-03 
2.2466244e-02 3.0643928e-03 3.8250019e-03 
-1.8817353e-08 3.5525802e-09 1.4709149e-08 
2.1644397e-02 -7.0227712e-04 2.5961788e-03 
0.0000000e+00 0.0000000e+00 0.0000000e+00 
4.6290885e-04 -3.3935826e-04 4.8864265e-05 
2.1864688e-02 -2.3859101e-03 2.1961988e-03 
3.4736419e-07 -8.2518241e-08 4.9744273e-08 
1.0551644e-02 -4.3836143e-03 7.4852817e-04 
0.0000000e+00 0.0000000e+00 0.0000000e+00 
7.8929930e-05 -4.3365805e-04 1.6717267e-05 
1.0499955e-02 -6.0034273e-03 5.1886897e-04 
2.1294130e-04 -8.7684988e-05 2.5798185e-05 
1.2503839e-02 -4.4384552e-03 9.2577829e-04 
-5.8346163e-08 1.2303349e-08 -4.9065635e-10 
-7.1060158e-06 -1.4517547e-04 1.0064779e-05 
1.2493033e-02 -6.1394470e-03 6.7362469e-04 
2.2685265e-02 5.8154394e-03 4.7956989e-03 
2.4184043e-02 4.1614207e-03 4.2876978e-03 
0.0000000e+00 0.0000000e+00 0.0000000e+00 
2.3070067e-02 2.9188307e-04 2.9778171e-03 
2.4699155e-02 2.5354109e-03 3.8012299e-03 
2.3292867e-02 4.2434409e-03 4.2818440e-03 
2.3354158e-02 -1.4027210e-03 2.5488383e-03 
5.7785452e-05 2.2302373e-05 8.3314590e-06 
1.4520143e-02 -4.3441658e-03 1.1311851e-03 
0.0000000e+00 0.0000000e+00 0.0000000e+00 
1.4527528e-02 -6.0564899e-03 8.5640902e-04 
1.2589760e-07 -3.1277441e-08 1.8310860e-08 
0.0000000e+00 0.0000000e+00 0.0000000e+00 
2.3281200e-05 -3.4980110e-06 2.5335885e-06 
-8.8728340e-09 1.9462134e-09 5.7155076e-09 
2.3260659e-02 7.0168097e-03 5.2889953e-03 
2.4976643e-02 5.3873486e-03 4.7640977e-03 
0.0000000e+00 0.0000000e+00 0.0000000e+00 
0.0000000e+00 0.0000000e+00 0.0000000e+00 
1.6511984e-02 -4.0615010e-03 1.3654449e-03 
2.4356969e-02 1.3822255e-03 3.3872072e-03 
1.6553381e-02 -5.7857488e-03 1.0664765e-03 
2.4712926e-02 -3.1940269e-04 2.9293443e-03 
2.5582841e-02 3.7646177e-03 4.2527108e-03 
2.3987314e-02 5.4571792e-03 4.7622705e-03 
9.8835044e-06 -1.6288907e-06 8.3810693e-07 
2.3250179e-02 8.3458899e-03 5.8312919e-03 
0.0000000e+00 0.0000000e+00 0.0000000e+00 
1.8455459e-02 -3.5973992e-03 1.6292592e-03 
1.8535003e-02 -5.3376765e-03 1.3047413e-03 
-2.3625246e-08 5.1071751e-09 -2.6476188e-10 
2.5634028e-02 6.6283336e-03 5.2701044e-03 
2.5497805e-02 2.5500897e-03 3.8228715e-03 
0.0000000e+00 0.0000000e+00 0.0000000e+00 
2.5933394e-02 8.4628665e-04 3.3368696e-03 
4.3864642e-08 -1.1388999e-08 6.5371593e-09 
2.6329979e-02 5.0309929e-03 4.7223005e-03 
2.3241429e-02 9.7013069e-03 6.3958443e-03 
2.4556730e-02 6.6804597e-03 5.2476376e-03 
4.0458281e-06 -6.9602066e-07 2.9755495e-07 
0.0000000e+00 0.0000000e+00 0.0000000e+00 
0.0000000e+00 0.0000000e+00 0.0000000e+00 
2.0324375e-02 -2.9626698e-03 1.9231465e-03 
2.5658738e-02 8.0088628e-03 5.8058999e-03 
2.0447882e-02 -4.7195931e-03 1.5716666e-03 
2.4488840e-02 8.0338959e-03 5.7780375e-03 
-3.9092130e-09 9.4866814e-10 2.1704138e-09 
2.3241997e-02 1.1062717e-02 6.9916332e-03 
2.6488701e-02 3.7772339e-03 4.2830249e-03 
0.0000000e+00 0.0000000e+00 0.0000000e+00 
2.7011158e-02 2.0769320e-03 3.7701682e-03 
1.5930033e-06 -2.8662649e-07 1.0964740e-07 
2.5675600e-02 9.3973204e-03 6.3745342e-03 
2.6946597e-02 6.2953210e-03 5.2222242e-03 
2.2093922e-02 -2.1718703e-03 2.2471633e-03 
0.0000000e+00 0.0000000e+00 0.0000000e+00 
2.4439229e-02 9.4030080e-03 6.3368478e-03 
2.2268450e-02 -3.9436240e-03 1.8674504e-03 
2.6923364e-02 7.6976102e-03 5.7468577e-03 
1.4690718e-08 -3.9867594e-09 2.2524165e-09 
2.3247311e-02 1.2419605e-02 7.6177097e-03 
2.5693147e-02 1.0782120e-02 6.9721136e-03 
2.7328348e-02 5.0461302e-03 4.7659758e-03 
0.0000000e+00 0.0000000e+00 0.0000000e+00 
2.4387039e-02 1.0779222e-02 6.9268527e-03 
2.7944699e-02 3.3558114e-03 4.2275046e-03 
2.3742508e-02 -1.2427842e-03 2.6009222e-03 
-9.3001375e-09 2.0642525e-09 -1.1889695e-10 
2.3975840e-02 -3.0257590e-03 2.1920889e-03 
6.0304393e-07 -1.1337717e-07 4.0613877e-08 
0.0000000e+00 0.0000000e+00 0.0000000e+00 
2.6881652e-02 9.0990374e-03 6.3072247e-03 
0.0000000e+00 0.0000000e+00 0.0000000e+00 
2.5711138e-02 1.2156389e-02 7.5998516e-03 
2.8025324e-02 6.3207811e-03 5.2650995e-03 
2.4334596e-02 1.2151352e-02 7.5485208e-03 
2.3255052e-02 1.3764769e-02 8.2746623e-03 
2.5252851e-02 -1.9545523e-04 2.9836094e-03 
2.6838455e-02 1.0498440e-02 6.9000032e-03 
2.8736601e-02 4.6676518e-03 4.7061681e-03 
2.5552979e-02 -1.9846838e-03 2.5453283e-03 
-1.6352070e-09 4.2757228e-10 8.0700008e-10 
0.0000000e+00 0.0000000e+00 0.0000000e+00 
3.3643944e-03 -3.9532189e-03 9.6692755e-05 
3.5657445e-03 -2.6780243e-03 2.1006676e-04 
2.2916917e-03 -3.1614762e-03 6.5425993e-05 
4.6608462e-03 -4.7235847e-03 1.4205011e-04 
4.8368257e-03 -3.3256873e-03 2.7925789e-04 
2.5118487e-03 -2.0266485e-03 1.5497675e-04 
6.3184397e-03 -3.9285300e-03 3.6528209e-04 
6.1715869e-03 -5.4319734e-03 2.0452723e-04 
1.4426252e-03 -2.3889549e-03 4.5073702e-05 
2.8047726e-02 7.7239526e-03 5.8098431e-03 
2.1943426e-07 -4.3026077e-08 1.4794495e-08 
1.6717471e-03 -1.4112517e-03 1.1130979e-04 
7.9944385e-03 -4.4465507e-03 4.7081304e-04 
7.8783734e-03 -6.0403319e-03 2.8689083e-04 
8.0776273e-04 -1.6737545e-03 3.2448319e-05 
0.0000000e+00 0.0000000e+00 0.0000000e+00 
1.0325087e-03 -8.6783862e-04 7.6574936e-05 
4.7292827e-09 -1.3428474e-09 7.4790824e-10 
9.8407688e-03 -4.8431624e-03 5.9837446e-04 
0.0000000e+00 0.0000000e+00 0.0000000e+00 
2.6612425e-02 9.4894593e-04 3.3939858e-03 
9.7559439e-03 -6.5153427e-03 3.9157475e-04 
3.6959283e-04 -1.0494160e-03 2.4485151e-05 
2.6794633e-02 1.1887977e-02 7.5241416e-03 
2.5729202e-02 1.3515061e-02 8.2586035e-03 
2.6987100e-02 -8.4058533e-04 2.9265983e-03 
2.8079852e-02 9.1347732e-03 6.3777203e-03 
2.4283309e-02 1.3511643e-02 8.2020480e-03 
2.9358132e-02 5.9786020e-03 5.2077286e-03 
5.7305431e-04 -4.2715995e-04 4.8636110e-05 
1.1827961e-02 -5.0868918e-03 7.5024657e-04 
2.3263937e-02 1.5093503e-02 8.9632524e-03 
1.0455324e-04 -5.4366729e-04 1.8330935e-05 
1.1774690e-02 -6.8299477e-03 5.2072591e-04 
2.6590691e-04 -1.1391901e-04 2.6055677e-05 
2.9338105e-02 7.4103433e-03 5.7382365e-03 
1.3922101e-02 -5.1516215e-03 9.2805631e-04 
-3.5639534e-09 8.1284218e-10 -4.8074000e-11 
0.0000000e+00 0.0000000e+00 0.0000000e+00 
-8.0585278e-06 -1.8403321e-04 1.1156973e-05 
1.3909876e-02 -6.9689392e-03 6.7673373e-04 
2.8111730e-02 1.0537072e-02 6.9750762e-03 
2.7813403e-02 2.1692168e-03 3.8303821e-03 
2.8269822e-02 3.8595742e-04 3.3349465e-03 
7.6740037e-08 -1.5664982e-08 5.2369415e-09 
2.6751464e-02 1.3261966e-02 8.1799766e-03 
7.4983582e-05 2.8334767e-05 8.0822838e-06 
0.0000000e+00 0.0000000e+00 0.0000000e+00 
2.9306138e-02 8.8350968e-03 6.3021216e-03 
1.6071396e-02 -5.0526122e-03 1.1338353e-03 
2.5746977e-02 1.4854706e-02 8.9491410e-03 
0.0000000e+00 0.0000000e+00 0.0000000e+00 
1.6080583e-02 -6.8768058e-03 8.5956958e-04 
2.4234181e-02 1.4855018e-02 8.8878535e-03 
3.0524792e-05 -4.1345334e-06 2.3995965e-06 
-6.5551409e-10 1.8162172e-10 2.9430786e-10 
0.0000000e+00 0.0000000e+00 0.0000000e+00 
2.8143056e-02 1.1925826e-02 7.6026302e-03 
2.3273204e-02 1.6403206e-02 9.6842228e-03 
2.8852222e-02 3.4450646e-03 4.2907191e-03 
0.0000000e+00 0.0000000e+00 0.0000000e+00 
1.8190436e-02 -4.7533493e-03 1.3685665e-03 
1.8235320e-02 -6.5868460e-03 1.0697250e-03 
2.9396871e-02 1.6749189e-03 3.7689819e-03 
2.9273186e-02 1.0252977e-02 6.8955035e-03 
1.4634511e-09 -4.3573201e-10 2.3936600e-10 
0.0000000e+00 0.0000000e+00 0.0000000e+00 
1.2997550e-05 -1.9846689e-06 7.8016086e-07 
2.6710052e-02 1.4616509e-02 8.8680591e-03 
0.0000000e+00 0.0000000e+00 0.0000000e+00 
2.0255266e-02 -4.2615598e-03 1.6329164e-03 
2.0340370e-02 -6.1094915e-03 1.3080433e-03 
2.5792994e-08 -5.4720997e-09 1.7914799e-09 
2.5764154e-02 1.6173512e-02 9.6721789e-03 
2.9728781e-02 4.7577708e-03 4.7726925e-03 
0.0000000e+00 0.0000000e+00 0.0000000e+00 
2.4188019e-02 1.6178595e-02 9.6064787e-03 
2.9240128e-02 1.1657417e-02 7.5197606e-03 
2.8173408e-02 1.3296910e-02 8.2612624e-03 
3.0367592e-02 3.0075547e-03 4.2268089e-03 
5.3363060e-06 -8.5482304e-07 2.7418275e-07 
0.0000000e+00 0.0000000e+00 0.0000000e+00 
2.2239080e-02 -3.5892318e-03 1.9273487e-03 
2.2370584e-02 -5.4525565e-03 1.5750163e-03 
2.3282398e-02 1.7693184e-02 1.0438261e-02 
-1.3313187e-09 3.1206740e-10 -1.8096035e-11 
0.0000000e+00 0.0000000e+00 0.0000000e+00 
3.0451166e-02 6.0680876e-03 5.2716285e-03 
2.6671285e-02 1.5949450e-02 9.5889820e-03 
2.1074943e-06 -3.5352247e-07 1.0020346e-07 
3.1184673e-02 4.3670041e-03 4.7059259e-03 
2.9207565e-02 1.3043926e-02 8.1756338e-03 
2.4115542e-02 -2.7526021e-03 2.2519042e-03 
0.0000000e+00 0.0000000e+00 0.0000000e+00 
2.4300825e-02 -4.6288799e-03 1.8708836e-03 
2.8202392e-02 1.4647420e-02 8.9517897e-03 
3.0479874e-02 7.4935029e-03 5.8176578e-03 
2.5780486e-02 1.7471282e-02 1.0428365e-02 
2.4145525e-02 1.7481452e-02 1.0358486e-02 
-2.5336575e-10 7.3526525e-11 1.0543060e-10 
0.0000000e+00 0.0000000e+00 0.0000000e+00 
4.3530990e-10 -1.3641646e-10 7.3914250e-11 
0.0000000e+00 0.0000000e+00 0.0000000e+00 
8.3331635e-09 -1.8343618e-09 5.9105204e-10 
0.0000000e+00 0.0000000e+00 0.0000000e+00 
2.5861129e-02 -1.7716744e-03 2.6061849e-03 
3.0517889e-02 8.9242579e-03 6.3878652e-03 
3.1816583e-02 5.7132449e-03 5.2043526e-03 
2.6108133e-02 -3.6558625e-03 2.1956603e-03 
8.0009011e-07 -1.4056778e-07 3.6853827e-08 
0.0000000e+00 0.0000000e+00 0.0000000e+00 
2.9176131e-02 1.4409296e-02 8.8637955e-03 
3.1792205e-02 7.1754716e-03 5.7388283e-03 
2.6635880e-02 1.7260334e-02 1.0343325e-02 
2.3291254e-02 1.8964557e-02 1.1225964e-02 
2.8229687e-02 1.5975833e-02 9.6749477e-03 
3.0555446e-02 1.0342102e-02 6.9863126e-03 
2.7456740e-02 -6.6914753e-04 2.9893548e-03 
2.7773382e-02 -2.5543747e-03 2.5490911e-03 
3.1760089e-02 8.6221127e-03 6.3045076e-03 
2.9191054e-07 -5.3646957e-08 1.3362502e-08 
0.0000000e+00 0.0000000e+00 0.0000000e+00 
2.4107333e-02 1.8764526e-02 1.1144402e-02 
2.5795775e-02 1.8749449e-02 1.1218270e-02 
3.0592192e-02 1.1743327e-02 7.6141939e-03 
2.9146453e-02 1.5751740e-02 9.5848944e-03 
2.8888632e-02 5.3097861e-04 3.4001358e-03 
3.1728469e-02 1.0056447e-02 6.8992740e-03 
2.9282305e-02 -1.3473521e-03 2.9305865e-03 
-4.8543208e-10 1.1692536e-10 -6.4581157e-12 
0.0000000e+00 0.0000000e+00 0.0000000e+00 
2.5886828e-09 -5.9030553e-10 1.8802654e-10 
0.0000000e+00 0.0000000e+00 0.0000000e+00 
2.8255040e-02 1.7282106e-02 1.0431392e-02 
2.6604431e-02 1.8550383e-02 1.1131617e-02 
1.2446337e-10 -4.1288799e-11 2.2055077e-11 
0.0000000e+00 0.0000000e+00 0.0000000e+00 
3.0148625e-02 1.8048440e-03 3.8368069e-03 
3.1697858e-02 1.1473912e-02 7.5241509e-03 
3.0627772e-02 1.3124759e-02 8.2726544e-03 
3.0625891e-02 -5.8315421e-05 3.3391574e-03 
1.0233857e-07 -1.9648521e-08 4.7247184e-09 
-9.4820943e-11 2.8577200e-11 3.7142806e-11 
2.3299651e-02 2.0220224e-02 1.2047821e-02 
0.0000000e+00 0.0000000e+00 0.0000000e+00 
0.0000000e+00 0.0000000e+00 0.0000000e+00 
3.8787632e-03 -4.5453086e-03 9.4787873e-05 
4.1006478e-03 -3.1170731e-03 2.1041246e-04 
2.6688138e-03 -3.6624067e-03 6.3857362e-05 
5.3235772e-03 -5.3941696e-03 1.4000617e-04 
5.5149943e-03 -3.8460505e-03 2.7931240e-04 
2.9146445e-03 -2.3760877e-03 1.5570722e-04 
7.1462216e-03 -4.5181443e-03 3.6521498e-04 
6.9885459e-03 -6.1659296e-03 2.0264069e-04 
1.6986971e-03 -2.7901288e-03 4.3938169e-05 
1.9579669e-03 -1.6679765e-03 1.1244421e-04 
8.9736097e-03 -5.0910972e-03 4.7085463e-04 
8.8506602e-03 -6.8216235e-03 2.8553914e-04 
9.6325367e-04 -1.9720350e-03 3.1766464e-05 
2.9119115e-02 1.7070998e-02 1.0339533e-02 
1.2209793e-03 -1.0350624e-03 7.8068922e-05 
1.0969320e-02 -5.5274484e-03 5.9877842e-04 
3.1233715e-02 3.1299810e-03 4.2972104e-03 
1.0880880e-02 -7.3282588e-03 3.9118502e-04 
4.4794549e-04 -1.2481284e-03 2.4255305e-05 
2.4074031e-02 2.0030560e-02 1.1964671e-02 
3.1800207e-02 1.2899876e-03 3.7733698e-03 
2.5809878e-02 2.0011112e-02 1.2042366e-02 
3.1668525e-02 1.2871106e-02 8.1801144e-03 
6.8433309e-04 -5.1512447e-04 5.0396426e-05 
1.3101144e-02 -5.7959291e-03 7.5122039e-04 
3.0661827e-02 1.4484111e-02 8.9627188e-03 
1.3062125e-04 -6.5314595e-04 1.8587627e-05 
1.3047035e-02 -7.6598632e-03 5.2174140e-04 
3.2033329e-04 -1.4003737e-04 2.7990689e-05 
2.8278267e-02 1.8567754e-02 1.1221688e-02 
1.5333375e-02 -5.8713034e-03 9.2959806e-04 
7.7358409e-10 -1.8245831e-10 5.7719336e-11 