# vtk DataFile Version 4.0
vtk output
ASCII
DATASET UNSTRUCTURED_GRID
POINTS 2524 float
-1.3600737e-02 9.2723727e-02 1.0000000e-01 
-1.1117464e-02 9.2369959e-02 1.0000000e-01 
-1.4838499e-02 9.0371020e-02 1.0000000e-01 
-1.2160867e-02 9.4958462e-02 1.0000000e-01 
-1.2428896e-02 9.0104103e-02 1.0000000e-01 
-9.5961727e-03 9.4500601e-02 1.0000000e-01 
-1.3518542e-02 8.7723628e-02 1.0000000e-01 
-1.5864562e-02 8.7918580e-02 1.0000000e-01 
-1.0530048e-02 9.7057916e-02 1.0000000e-01 
-7.8788539e-03 9.6476652e-02 1.0000000e-01 
-1.4376495e-02 8.5250191e-02 1.0000000e-01 
-1.6670976e-02 8.5385412e-02 1.0000000e-01 
-8.7209158e-03 9.9005811e-02 1.0000000e-01 
-5.9811245e-03 9.8280147e-02 1.0000000e-01 
-1.4994953e-02 8.2706288e-02 1.0000000e-01 
-1.7251492e-02 8.2791135e-02 1.0000000e-01 
-6.7474889e-03 1.0078707e-01 1.0000000e-01 
-3.9202408e-03 9.9894680e-02 1.0000000e-01 
-1.3600737e-02 9.2723727e-02 8.7499991e-02 
-1.5368291e-02 8.0115035e-02 1.0000000e-01 
-1.1117464e-02 9.2369959e-02 8.7499991e-02 
-1.2160867e-02 9.4958462e-02 8.7499991e-02 
-1.4838499e-02 9.0371020e-02 8.7499991e-02 
-1.2428894e-02 9.0104103e-02 8.7499991e-02 
-1.7601609e-02 8.0155857e-02 1.0000000e-01 
-4.6250601e-03 1.0238787e-01 1.0000000e-01 
-9.5961727e-03 9.4500601e-02 8.7499991e-02 
-1.3518536e-02 8.7723650e-02 8.7499991e-02 
-1.0530052e-02 9.7057909e-02 8.7499991e-02 
-1.5864562e-02 8.7918587e-02 8.7499991e-02 
-7.8788549e-03 9.6476652e-02 8.7499991e-02 
-1.4376482e-02 8.5250244e-02 8.7499991e-02 
-1.7149430e-03 1.0130557e-01 1.0000000e-01 
-8.7209288e-03 9.9005796e-02 8.7499991e-02 
-1.6670974e-02 8.5385419e-02 8.7499991e-02 
-1.5493116e-02 7.7500008e-02 1.0000000e-01 
-5.9811310e-03 9.8280139e-02 8.7499991e-02 
-1.7718617e-02 7.7499993e-02 1.0000000e-01 
-2.3700756e-03 1.0379581e-01 1.0000000e-01 
-1.4994934e-02 8.2706384e-02 8.7499991e-02 
-6.7475229e-03 1.0078704e-01 8.7499991e-02 
-1.7251486e-02 8.2791157e-02 8.7499991e-02 
6.1471661e-04 1.0250000e-01 1.0000000e-01 
-3.9202627e-03 9.9894665e-02 8.7499991e-02 
-1.5368290e-02 8.0115050e-02 8.7499991e-02 
-1.5368292e-02 7.4884973e-02 1.0000000e-01 
-4.6251309e-03 1.0238782e-01 8.7499991e-02 
-1.7601604e-02 8.0155902e-02 8.7499991e-02 
-1.7601607e-02 7.4844137e-02 1.0000000e-01 
-0.0000000e+00 1.0500000e-01 1.0000000e-01 
-1.7149959e-03 1.0130554e-01 8.7499991e-02 
3.2798690e-03 1.0250000e-01 1.0000000e-01 
-1.5493116e-02 7.7499904e-02 8.7499991e-02 
-2.3702064e-03 1.0379574e-01 8.7499991e-02 
-1.7718617e-02 7.7500083e-02 8.7499991e-02 
2.6781005e-03 1.0500000e-01 1.0000000e-01 
-1.4994955e-02 7.2293721e-02 1.0000000e-01 
-1.7251490e-02 7.2208859e-02 1.0000000e-01 
6.1471661e-04 1.0250000e-01 8.7499991e-02 
-1.5368287e-02 7.4884921e-02 8.7499991e-02 
6.0768481e-03 1.0250000e-01 1.0000000e-01 
-0.0000000e+00 1.0500000e-01 8.7499991e-02 
-1.7601607e-02 7.4844129e-02 8.7499991e-02 
5.4879682e-03 1.0500000e-01 1.0000000e-01 
-1.4376498e-02 6.9749817e-02 1.0000000e-01 
3.2798694e-03 1.0250000e-01 8.7499991e-02 
-1.6670974e-02 6.9614582e-02 1.0000000e-01 
2.6781012e-03 1.0500000e-01 8.7499991e-02 
-1.4994950e-02 7.2293699e-02 8.7499991e-02 
-1.7251475e-02 7.2208777e-02 8.7499991e-02 
9.0098707e-03 1.0250000e-01 1.0000000e-01 
-1.3600737e-02 9.2723727e-02 7.4999996e-02 
-1.1117464e-02 9.2369959e-02 7.4999996e-02 
-1.2160868e-02 9.4958462e-02 7.4999996e-02 
-1.4838499e-02 9.0371020e-02 7.4999996e-02 
-1.2428894e-02 9.0104103e-02 7.4999996e-02 
8.4337983e-03 1.0500000e-01 1.0000000e-01 
6.0768486e-03 1.0250000e-01 8.7499991e-02 
-9.5961727e-03 9.4500601e-02 7.4999996e-02 
-1.3518546e-02 6.7276381e-02 1.0000000e-01 
-1.3518536e-02 8.7723643e-02 7.4999996e-02 
-1.0530052e-02 9.7057909e-02 7.4999996e-02 
-1.5864560e-02 8.7918587e-02 7.4999996e-02 
-1.5864560e-02 6.7081414e-02 1.0000000e-01 
5.4879687e-03 1.0500000e-01 8.7499991e-02 
-7.8788558e-03 9.6476652e-02 7.4999996e-02 
-1.4376483e-02 8.5250236e-02 7.4999996e-02 
-1.4376496e-02 6.9749802e-02 8.7499991e-02 
-8.7209279e-03 9.9005796e-02 7.4999996e-02 
-1.6670972e-02 8.5385419e-02 7.4999996e-02 
-1.6670963e-02 6.9614545e-02 8.7499991e-02 
-5.9811347e-03 9.8280132e-02 7.4999996e-02 
-1.4994935e-02 8.2706377e-02 7.4999996e-02 
-6.7475205e-03 1.0078704e-01 7.4999996e-02 
-1.7251484e-02 8.2791165e-02 7.4999996e-02 
1.2083010e-02 1.0250000e-01 1.0000000e-01 
9.0098716e-03 1.0250000e-01 8.7499991e-02 
-3.9202701e-03 9.9894658e-02 7.4999996e-02 
-1.2428899e-02 6.4895906e-02 1.0000000e-01 
1.1519642e-02 1.0500000e-01 1.0000000e-01 
-1.5368290e-02 8.0115058e-02 7.4999996e-02 
-1.4838495e-02 6.4628974e-02 1.0000000e-01 
8.4337983e-03 1.0500000e-01 8.7499991e-02 
-4.6251258e-03 1.0238782e-01 7.4999996e-02 
-1.7601606e-02 8.0155894e-02 7.4999996e-02 
-1.3518546e-02 6.7276374e-02 8.7499991e-02 
-1.5864553e-02 6.7081392e-02 8.7499991e-02 
-1.7150094e-03 1.0130554e-01 7.4999996e-02 
-1.5493116e-02 7.7499934e-02 7.4999996e-02 
-2.3701969e-03 1.0379574e-01 7.4999996e-02 
-1.7718617e-02 7.7500060e-02 7.4999996e-02 
1.2083010e-02 1.0250000e-01 8.7499991e-02 
-1.1117469e-02 6.2630050e-02 1.0000000e-01 
6.1471661e-04 1.0250000e-01 7.4999996e-02 
-1.3600733e-02 6.2276267e-02 1.0000000e-01 
1.5300166e-02 1.0250000e-01 1.0000000e-01 
-1.2428900e-02 6.4895906e-02 8.7499991e-02 
1.1519643e-02 1.0500000e-01 8.7499991e-02 
-1.5368288e-02 7.4884929e-02 7.4999996e-02 
-1.4838492e-02 6.4628966e-02 8.7499991e-02 
1.4749384e-02 1.0500000e-01 1.0000000e-01 
-0.0000000e+00 1.0500000e-01 7.4999996e-02 
-1.7601607e-02 7.4844122e-02 7.4999996e-02 
3.2798708e-03 1.0250000e-01 7.4999996e-02 
2.6781023e-03 1.0500000e-01 7.4999996e-02 
-1.4994948e-02 7.2293691e-02 7.4999996e-02 
-9.5961774e-03 6.0499407e-02 1.0000000e-01 
-1.7251475e-02 7.2208785e-02 7.4999996e-02 
-1.1117470e-02 6.2630050e-02 8.7499991e-02 
-1.2160863e-02 6.0041532e-02 1.0000000e-01 
-1.3600732e-02 6.2276267e-02 8.7499991e-02 
1.5300167e-02 1.0250000e-01 8.7499991e-02 
6.0768500e-03 1.0250000e-01 7.4999996e-02 
1.4749384e-02 1.0500000e-01 8.7499991e-02 
1.8665034e-02 1.0250000e-01 1.0000000e-01 
5.4879701e-03 1.0500000e-01 7.4999996e-02 
-1.4376494e-02 6.9749802e-02 7.4999996e-02 
1.8126702e-02 1.0500000e-01 1.0000000e-01 
-1.6670963e-02 6.9614545e-02 7.4999996e-02 
-7.8788595e-03 5.8523357e-02 1.0000000e-01 
-9.5961811e-03 6.0499411e-02 8.7499991e-02 
-1.0530042e-02 5.7942081e-02 1.0000000e-01 
-1.2160863e-02 6.0041532e-02 8.7499991e-02 
9.0098726e-03 1.0250000e-01 7.4999996e-02 
8.4338002e-03 1.0500000e-01 7.4999996e-02 
-1.3518545e-02 6.7276374e-02 7.4999996e-02 
-1.5864553e-02 6.7081392e-02 7.4999996e-02 
1.8665034e-02 1.0250000e-01 8.7499991e-02 
1.8126702e-02 1.0500000e-01 8.7499991e-02 
-5.9811305e-03 5.6719862e-02 1.0000000e-01 
-7.8788726e-03 5.8523368e-02 8.7499991e-02 
-8.7209092e-03 5.5994183e-02 1.0000000e-01 
-1.0530042e-02 5.7942081e-02 8.7499991e-02 
2.2181055e-02 1.0250000e-01 1.0000000e-01 
1.2083011e-02 1.0250000e-01 7.4999996e-02 
2.1655027e-02 1.0500000e-01 1.0000000e-01 
-1.2428900e-02 6.4895906e-02 7.4999996e-02 
-1.3600738e-02 9.2723727e-02 6.2499993e-02 
1.1519643e-02 1.0500000e-01 7.4999996e-02 
-1.1117464e-02 9.2369959e-02 6.2499993e-02 
-1.2160869e-02 9.4958462e-02 6.2499993e-02 
-1.4838499e-02 9.0371020e-02 6.2499993e-02 
-1.2428895e-02 9.0104103e-02 6.2499993e-02 
-1.4838493e-02 6.4628966e-02 7.4999996e-02 
-9.5961727e-03 9.4500601e-02 6.2499993e-02 
-1.3518537e-02 8.7723643e-02 6.2499993e-02 
-1.0530052e-02 9.7057909e-02 6.2499993e-02 
-1.5864560e-02 8.7918587e-02 6.2499993e-02 
-7.8788577e-03 9.6476644e-02 6.2499993e-02 
-1.4376485e-02 8.5250229e-02 6.2499993e-02 
-1.6670970e-02 8.5385427e-02 6.2499993e-02 
-8.7209269e-03 9.9005803e-02 6.2499993e-02 
-5.9811398e-03 9.8280132e-02 6.2499993e-02 
-1.4994938e-02 8.2706362e-02 6.2499993e-02 
-3.9202473e-03 5.5105329e-02 1.0000000e-01 
-5.9811682e-03 5.6719895e-02 8.7499991e-02 
-1.7251484e-02 8.2791172e-02 6.2499993e-02 
-6.7475168e-03 1.0078704e-01 6.2499993e-02 
-8.7209111e-03 5.5994183e-02 8.7499991e-02 
-6.7474819e-03 5.4212932e-02 1.0000000e-01 
2.2181056e-02 1.0250000e-01 8.7499991e-02 
-1.1117470e-02 6.2630050e-02 7.4999996e-02 
2.1655027e-02 1.0500000e-01 8.7499991e-02 
-3.9202808e-03 9.9894650e-02 6.2499993e-02 
-1.3600732e-02 6.2276267e-02 7.4999996e-02 
1.5300168e-02 1.0250000e-01 7.4999996e-02 
-1.5368289e-02 8.0115065e-02 6.2499993e-02 
1.4749385e-02 1.0500000e-01 7.4999996e-02 
-4.6251179e-03 1.0238782e-01 6.2499993e-02 
-1.7601606e-02 8.0155887e-02 6.2499993e-02 
-1.7150288e-03 1.0130552e-01 6.2499993e-02 
-1.5493116e-02 7.7499963e-02 6.2499993e-02 
2.5851376e-02 1.0250000e-01 1.0000000e-01 
-2.3701836e-03 1.0379575e-01 6.2499993e-02 
-1.7718617e-02 7.7500030e-02 6.2499993e-02 
-1.7149500e-03 5.3694431e-02 1.0000000e-01 
-3.9203316e-03 5.5105384e-02 8.7499991e-02 
2.5337499e-02 1.0500000e-01 1.0000000e-01 
-9.5961811e-03 6.0499411e-02 7.4999996e-02 
-6.7474898e-03 5.4212935e-02 8.7499991e-02 
-4.6250527e-03 5.2612130e-02 1.0000000e-01 
-1.2160863e-02 6.0041532e-02 7.4999996e-02 
6.1471661e-04 1.0250000e-01 6.2499993e-02 
-1.5368289e-02 7.4884936e-02 6.2499993e-02 
-0.0000000e+00 1.0500000e-01 6.2499993e-02 
-1.7601606e-02 7.4844114e-02 6.2499993e-02 
1.8665036e-02 1.0250000e-01 7.4999996e-02 
1.8126704e-02 1.0500000e-01 7.4999996e-02 
3.2798727e-03 1.0250000e-01 6.2499993e-02 
2.5851376e-02 1.0250000e-01 8.7499991e-02 
6.1471661e-04 5.2499998e-02 1.0000000e-01 
-1.7151133e-03 5.3694524e-02 8.7499991e-02 
2.6781042e-03 1.0500000e-01 6.2499993e-02 
2.5337499e-02 1.0500000e-01 8.7499991e-02 
-1.4994946e-02 7.2293676e-02 6.2499993e-02 
-7.8788716e-03 5.8523368e-02 7.4999996e-02 
-1.7251477e-02 7.2208792e-02 6.2499993e-02 
-1.0530043e-02 5.7942081e-02 7.4999996e-02 
-4.6250741e-03 5.2612145e-02 8.7499991e-02 
-2.3700679e-03 5.1204182e-02 1.0000000e-01 
6.0768514e-03 1.0250000e-01 6.2499993e-02 
3.2995713e-03 5.2499998e-02 1.0000000e-01 
5.4879719e-03 1.0500000e-01 6.2499993e-02 
-1.4376492e-02 6.9749795e-02 6.2499993e-02 
-1.6670965e-02 6.9614552e-02 6.2499993e-02 
2.9678803e-02 1.0250000e-01 1.0000000e-01 
[...]
POINT_DATA 2524
FIELD FieldData 1
DISPLACEMENT 3 2524  float
-3.9106854e-03 4.3558669e-03 1.2344457e-04 
-4.0358752e-03 3.3719884e-03 3.2866898e-04 
-4.8998455e-03 4.8943153e-03 2.0454807e-04 
-2.9741484e-03 3.7317334e-03 6.8808542e-05 
-4.9895165e-03 3.9430205e-03 4.3566691e-04 
-3.1351880e-03 2.7440174e-03 2.4589765e-04 
-5.9658927e-03 4.4352361e-03 5.7185057e-04 
-5.9080706e-03 5.3341975e-03 3.1672118e-04 
-2.1239938e-03 3.0453494e-03 3.5485689e-05 
-2.3161797e-03 2.0906054e-03 1.8215248e-04 
-6.9372398e-03 4.8359660e-03 7.4187707e-04 
-6.9056931e-03 5.6727845e-03 4.6387990e-04 
-1.3906364e-03 2.3302096e-03 1.7859355e-05 
-1.6026006e-03 1.4519609e-03 1.3203206e-04 
-7.8824209e-03 5.1395688e-03 9.5011992e-04 
-7.8706965e-03 5.9163943e-03 6.4903579e-04 
-7.9793180e-04 1.6286501e-03 9.8817554e-06 
-1.0109444e-03 8.7501016e-04 8.9736735e-05 
-2.9829976e-03 3.4695140e-03 1.8836580e-04 
-8.7919682e-03 5.3425217e-03 1.2007211e-03 
-3.0922669e-03 2.6044992e-03 3.6591027e-04 
-2.2063765e-03 2.9549166e-03 1.3347881e-04 
-3.8120176e-03 3.9062612e-03 2.6747020e-04 
-3.8909975e-03 3.0699221e-03 4.7035783e-04 
-8.7925792e-03 6.0786209e-03 8.7413209e-04 
-3.6008077e-04 9.9040952e-04 5.0068702e-06 
-2.3475548e-03 2.0857388e-03 2.8428133e-04 
-4.7146934e-03 3.4625980e-03 6.0266425e-04 
-1.5131572e-03 2.3838500e-03 9.7687851e-05 
-4.6621393e-03 4.2531383e-03 3.7551342e-04 
-1.6838831e-03 1.5420379e-03 2.2018858e-04 
-5.5357912e-03 3.7721712e-03 7.6749618e-04 
-5.5024144e-04 4.0894496e-04 4.7771373e-05 
-9.3109591e-04 1.7862832e-03 7.5588141e-05 
-5.5049621e-03 4.5073126e-03 5.1668868e-04 
-9.7067105e-03 5.4417960e-03 1.4873607e-03 
-1.1228889e-03 1.0098678e-03 1.6826081e-04 
-9.6518593e-03 6.1514596e-03 1.1464747e-03 
-7.7697994e-05 4.7343480e-04 -3.8938078e-06 
-6.3316156e-03 3.9963541e-03 9.6906588e-04 
-4.8253886e-04 1.1991336e-03 6.1595376e-05 
-6.3180868e-03 4.6741092e-03 6.9439149e-04 
-1.5187613e-04 -1.1753786e-05 1.1706983e-05 
-6.7782414e-04 5.3245568e-04 1.2323153e-04 
-7.0874393e-03 4.1388609e-03 1.2114086e-03 
-1.0565019e-02 5.3943195e-03 1.8154293e-03 
-1.8378471e-04 6.6385866e-04 4.9934682e-05 
-7.0887427e-03 4.7658682e-03 9.0964767e-04 
-1.0520133e-02 6.0949051e-03 1.4498465e-03 
0.0000000e+00 0.0000000e+00 0.0000000e+00 
-3.5061323e-04 1.5865454e-04 8.0340840e-05 
-7.5639284e-05 -1.6590566e-06 8.3307702e-07 
-7.7948431e-03 4.2053792e-03 1.5018566e-03 
-4.4145956e-05 2.2010367e-04 3.3656706e-05 
-7.7913227e-03 4.7912346e-03 1.1491153e-03 
0.0000000e+00 0.0000000e+00 0.0000000e+00 
-1.1426915e-02 5.2658203e-03 2.1840958e-03 
-1.1397796e-02 5.9787626e-03 1.7852434e-03 
-1.1534480e-04 -2.7309672e-05 2.0448342e-05 
-8.4690573e-03 4.1779736e-03 1.8238276e-03 
-3.3748813e-05 1.3153634e-06 -8.5051846e-07 
0.0000000e+00 0.0000000e+00 0.0000000e+00 
-8.4801549e-03 4.7662570e-03 1.4376764e-03 
0.0000000e+00 0.0000000e+00 0.0000000e+00 
-1.2287595e-02 5.0643031e-03 2.5938088e-03 
-3.6394635e-05 1.3326673e-05 4.3032337e-06 
-1.2276526e-02 5.7935617e-03 2.1580551e-03 
0.0000000e+00 0.0000000e+00 0.0000000e+00 
-9.1569936e-03 4.0834555e-03 2.1870933e-03 
-9.1789719e-03 4.6870280e-03 1.7675671e-03 
-1.4986613e-05 1.3380069e-06 -5.6343254e-07 
-2.1756329e-03 2.5323222e-03 1.5365174e-04 
-2.2333062e-03 1.8524654e-03 3.3623460e-04 
-1.5856987e-03 2.1423625e-03 9.8516670e-05 
-2.8081867e-03 2.8629829e-03 2.3199650e-04 
-2.8415082e-03 2.2053935e-03 4.4605450e-04 
0.0000000e+00 0.0000000e+00 0.0000000e+00 
-1.4500790e-05 3.7500349e-06 1.1969709e-06 
-1.6686491e-03 1.4632517e-03 2.4863650e-04 
-1.3131369e-02 4.7972221e-03 3.0463377e-03 
-3.4689477e-03 2.5048836e-03 5.8232399e-04 
-1.0640591e-03 1.7117332e-03 6.2175022e-05 
-3.4568433e-03 3.1235202e-03 3.3757003e-04 
-1.3140750e-02 5.5364240e-03 2.5706156e-03 
0.0000000e+00 0.0000000e+00 0.0000000e+00 
-1.1695189e-03 1.0622984e-03 1.7894062e-04 
-4.0917937e-03 2.7414914e-03 7.4899098e-04 
-9.8489327e-03 3.9233202e-03 2.5926325e-03 
-6.3287956e-04 1.2662369e-03 3.9993720e-05 
-4.0968722e-03 3.3105656e-03 4.7381571e-04 
-9.8835835e-03 4.5427396e-03 2.1380798e-03 
-7.5290044e-04 6.8036903e-04 1.2302071e-04 
-4.6890918e-03 2.9129940e-03 9.4961829e-04 
-3.0844973e-04 8.3743007e-04 2.7321017e-05 
-4.7074468e-03 3.4267385e-03 6.4339727e-04 
-6.5668264e-06 7.6431405e-07 -2.4433584e-07 
-5.6208282e-06 1.5767888e-06 4.3025747e-07 
-4.2874421e-04 3.5254241e-04 7.7403740e-05 
-1.3938084e-02 4.4751032e-03 3.5429033e-03 
0.0000000e+00 0.0000000e+00 0.0000000e+00 
-5.2441387e-03 3.0236067e-03 1.1873803e-03 
-1.3969522e-02 5.2115060e-03 3.0247008e-03 
0.0000000e+00 0.0000000e+00 0.0000000e+00 
-9.9106881e-05 4.6064664e-04 1.9730111e-05 
-5.2724453e-03 3.4777492e-03 8.4804260e-04 
-1.0528673e-02 3.7017264e-03 3.0416304e-03 
-1.0578061e-02 4.3311734e-03 2.5498432e-03 
-1.9985484e-04 1.1655801e-04 4.0153347e-05 
-5.7433019e-03 3.0838135e-03 1.4648017e-03 
5.1029374e-06 1.6457452e-04 1.2823823e-05 
-5.7753040e-03 3.4669763e-03 1.0898175e-03 
-2.1633298e-06 6.5470442e-07 1.8429930e-07 
-1.4687055e-02 4.1127885e-03 4.0840232e-03 
-7.6907927e-05 -2.4214010e-05 1.8058079e-05 
-1.4740655e-02 4.8296987e-03 3.5216135e-03 
-2.8225811e-06 3.8092023e-07 -8.9038281e-08 
-1.1177055e-02 3.4272389e-03 3.5348185e-03 
0.0000000e+00 0.0000000e+00 0.0000000e+00 
-6.2197554e-03 3.0449436e-03 1.7855873e-03 
-1.1242853e-02 4.0563708e-03 3.0036438e-03 
0.0000000e+00 0.0000000e+00 0.0000000e+00 
0.0000000e+00 0.0000000e+00 0.0000000e+00 
-6.2608146e-03 3.4639335e-03 1.3779722e-03 
-3.2541764e-05 1.9410788e-06 4.2624470e-06 
0.0000000e+00 0.0000000e+00 0.0000000e+00 
-6.7229229e-03 2.9635022e-03 2.1498874e-03 
-1.5360302e-02 3.7289038e-03 4.6695019e-03 
-6.7709554e-03 3.4083491e-03 1.7060525e-03 
-1.1775023e-02 3.1131469e-03 4.0723425e-03 
-1.5434121e-02 4.4077239e-03 4.0621012e-03 
-1.1857921e-02 3.7283942e-03 3.5000357e-03 
-8.3054840e-07 2.6547085e-07 8.5003542e-08 
-1.3746848e-05 1.3443926e-06 1.1515442e-06 
0.0000000e+00 0.0000000e+00 0.0000000e+00 
-1.1875336e-06 1.7840981e-07 -2.8971773e-08 
0.0000000e+00 0.0000000e+00 0.0000000e+00 
-7.2383727e-03 2.8347201e-03 2.5584043e-03 
0.0000000e+00 0.0000000e+00 0.0000000e+00 
-7.2954586e-03 3.2980540e-03 2.0764093e-03 
-1.5944956e-02 3.3441877e-03 5.2984748e-03 
-1.2306340e-02 2.7766703e-03 4.6536620e-03 
-1.6034726e-02 3.9664875e-03 4.6462836e-03 
-1.2405446e-02 3.3625192e-03 4.0391297e-03 
-5.5984551e-06 6.0088922e-07 3.3177304e-07 
0.0000000e+00 0.0000000e+00 0.0000000e+00 
-7.7497852e-03 2.6598850e-03 3.0119026e-03 
-7.8175776e-03 3.1336625e-03 2.4897307e-03 
-3.1868188e-07 1.0566175e-07 3.9839978e-08 
0.0000000e+00 0.0000000e+00 0.0000000e+00 
-1.6434552e-02 2.9791084e-03 5.9695276e-03 
-1.2759673e-02 2.4373771e-03 5.2774563e-03 
-1.6533954e-02 3.5288676e-03 5.2736057e-03 
-1.2871998e-02 2.9777535e-03 4.6204384e-03 
-4.8864240e-07 8.0069221e-08 -8.6109875e-09 
-2.1881742e-06 2.5314978e-07 1.0330956e-07 
0.0000000e+00 0.0000000e+00 0.0000000e+00 
-8.2398299e-03 2.4452747e-03 3.5105618e-03 
-1.3680310e-03 1.5907015e-03 1.5746824e-04 
0.0000000e+00 0.0000000e+00 0.0000000e+00 
-1.3941535e-03 1.1330863e-03 3.3426890e-04 
-9.8082470e-04 1.3334787e-03 1.0356450e-04 
-1.7858265e-03 1.8084429e-03 2.3419438e-04 
-1.7950211e-03 1.3657616e-03 4.4525211e-04 
-8.3192913e-03 2.9192553e-03 2.9463186e-03 
-1.0242523e-03 8.8004634e-04 2.4549456e-04 
-2.2079449e-03 1.5647560e-03 5.8248296e-04 
-6.4340356e-04 1.0515226e-03 6.8002810e-05 
-2.2135573e-03 1.9776844e-03 3.3785496e-04 
-7.0175837e-04 6.2513025e-04 1.7490207e-04 
-2.6135796e-03 1.7226025e-03 7.4984919e-04 
-2.6311122e-03 2.0950304e-03 4.7207909e-04 
-3.7132029e-04 7.6457305e-04 4.6073666e-05 
-4.3868201e-04 3.9043717e-04 1.1871613e-04 
-2.9937876e-03 1.8376572e-03 9.5099676e-04 
-1.6828874e-02 2.6509564e-03 6.6809966e-03 
-1.3129830e-02 2.1152482e-03 5.9415349e-03 
-3.0203732e-03 2.1618267e-03 6.3996331e-04 
-1.7435467e-04 4.9579574e-04 3.2981632e-05 
-1.3249916e-02 2.5948579e-03 5.2427440e-03 
-1.6930934e-02 3.1172594e-03 5.9427880e-03 
-1.2216631e-07 4.1378634e-08 1.8409926e-08 
-8.6919032e-03 2.2015814e-03 4.0539340e-03 
0.0000000e+00 0.0000000e+00 0.0000000e+00 
-2.4112222e-04 1.9910811e-04 7.3767296e-05 
-8.7829437e-03 2.6633975e-03 3.4461543e-03 
-8.2073399e-07 1.0125596e-07 3.4453095e-08 
-3.3324191e-03 1.9137162e-03 1.1892964e-03 
0.0000000e+00 0.0000000e+00 0.0000000e+00 
-5.4467808e-05 2.6937216e-04 2.3965895e-05 
-3.3655670e-03 2.1827430e-03 8.4426248e-04 
-1.0898296e-04 7.1974871e-05 3.8111986e-05 
-3.6157481e-03 1.9598664e-03 1.4674907e-03 
-1.9656784e-07 3.4673619e-08 -2.3678526e-09 
5.6474214e-06 9.8925360e-05 1.4561047e-05 
-3.6500073e-03 2.1628304e-03 1.0883635e-03 
-1.7128350e-02 2.3745240e-03 7.4330331e-03 
-1.3418088e-02 1.8289102e-03 6.6427798e-03 
0.0000000e+00 0.0000000e+00 0.0000000e+00 
-9.0920394e-03 1.9430022e-03 4.6409122e-03 
-1.3537566e-02 2.2341968e-03 5.9039458e-03 
-1.7233128e-02 2.7510992e-03 6.6516669e-03 
-9.1931140e-03 2.3789143e-03 3.9887996e-03 
-4.3754786e-05 -1.6545273e-05 1.2282490e-05 
-3.8879125e-03 1.9260782e-03 1.7884795e-03 
0.0000000e+00 0.0000000e+00 0.0000000e+00 
-3.9267028e-03 2.1730028e-03 1.3745087e-03 
-2.9544927e-07 3.8453013e-08 1.1988609e-08 
0.0000000e+00 0.0000000e+00 0.0000000e+00 
-1.9194296e-05 4.5793620e-08 3.6767638e-06 
-4.6679496e-08 1.5959699e-08 8.2640312e-09 
-1.7395802e-02 2.1148415e-03 8.2059223e-03 
-1.3632185e-02 1.5940834e-03 7.3773353e-03 
0.0000000e+00 0.0000000e+00 0.0000000e+00 
0.0000000e+00 0.0000000e+00 0.0000000e+00 
-4.1992711e-03 1.8677291e-03 2.1531158e-03 
-9.4305081e-03 1.6858500e-03 5.2696876e-03 
-4.2427108e-03 2.1465553e-03 1.7016934e-03 
-9.5383013e-03 2.0818096e-03 4.5732972e-03 
-1.3737995e-02 1.9139262e-03 6.6007003e-03 
-1.7467370e-02 2.4393145e-03 7.3955846e-03 
-8.2022225e-06 5.1718735e-07 1.1908438e-06 
-1.7471349e-02 1.9903625e-03 9.0131769e-03 
0.0000000e+00 0.0000000e+00 0.0000000e+00 
-4.5327591e-03 1.7792811e-03 2.5622994e-03 
-4.5821904e-03 2.0798817e-03 2.0714470e-03 
-7.7293627e-08 1.4538506e-08 -6.1153332e-10 
-1.3788153e-02 1.4410253e-03 8.1546959e-03 
-9.7027710e-03 1.4468944e-03 5.9377206e-03 
0.0000000e+00 0.0000000e+00 0.0000000e+00 
-9.8120254e-03 1.7896669e-03 5.1980913e-03 
-1.0209931e-07 1.3865686e-08 4.2408970e-09 
-1.3857111e-02 1.6453102e-03 7.3264414e-03 
-1.7557681e-02 1.9228923e-03 9.8620011e-03 
-1.7555350e-02 2.1718589e-03 8.1599774e-03 
-3.3865624e-06 2.5249170e-07 4.1103732e-07 
0.0000000e+00 0.0000000e+00 0.0000000e+00 
0.0000000e+00 0.0000000e+00 0.0000000e+00 
-4.8720753e-03 1.6602469e-03 3.0167405e-03 
-1.3855645e-02 1.3389945e-03 8.9678429e-03 
-4.9284906e-03 1.9732472e-03 2.4844729e-03 
-1.7541060e-02 1.9983905e-03 8.9518689e-03 
-1.7714664e-08 6.0644085e-09 3.5811127e-09 
-1.7636593e-02 1.9236439e-03 1.0764495e-02 
-9.9096764e-03 1.2417864e-03 6.6417614e-03 
0.0000000e+00 0.0000000e+00 0.0000000e+00 
-1.0013168e-02 1.5198821e-03 5.8609792e-03 
-1.3419559e-06 1.1170934e-07 1.4735063e-07 
-1.3898576e-02 1.3372822e-03 9.8301172e-03 
-1.3928317e-02 1.4882521e-03 8.0932789e-03 
-5.2015772e-03 1.5145526e-03 3.5164873e-03 
0.0000000e+00 0.0000000e+00 0.0000000e+00 
-1.7570699e-02 1.9117328e-03 9.7928066e-03 
-5.2653835e-03 1.8299734e-03 2.9409968e-03 
-1.3919762e-02 1.3493042e-03 8.8918936e-03 
-3.3883637e-08 4.7460227e-09 1.4968132e-09 
-1.7706152e-02 1.9866179e-03 1.1716602e-02 
-1.3935696e-02 1.3943746e-03 1.0737804e-02 
-1.0057186e-02 1.0836165e-03 7.3782308e-03 
0.0000000e+00 0.0000000e+00 0.0000000e+00 
-1.7598419e-02 1.9010757e-03 1.0683760e-02 
-1.0145558e-02 1.2881081e-03 6.5590469e-03 
-5.5070193e-03 1.3499359e-03 4.0609217e-03 
-2.9710490e-08 5.9156218e-09 -1.5303116e-10 
-5.5777454e-03 1.6568563e-03 3.4408814e-03 
-5.0993827e-07 4.6735359e-08 5.3385502e-08 
0.0000000e+00 0.0000000e+00 0.0000000e+00 
-1.3889018e-02 1.3341339e-03 9.7423568e-03 
0.0000000e+00 0.0000000e+00 0.0000000e+00 
-1.3969705e-02 1.5009689e-03 1.1692364e-02 
-1.0144903e-02 9.5026637e-04 8.1330054e-03 
-1.7625675e-02 1.9555178e-03 1.1625973e-02 
-1.7767029e-02 2.1043192e-03 1.2717528e-02 
-5.7767029e-03 1.1770728e-03 4.6487683e-03 
-1.3874517e-02 1.3781341e-03 1.0641750e-02 
-1.0215383e-02 1.1081675e-03 7.2883237e-03 
-5.8527100e-03 1.4639663e-03 3.9835880e-03 
-6.6513355e-09 2.2699282e-09 1.4955589e-09 
0.0000000e+00 0.0000000e+00 0.0000000e+00 
-5.7302078e-04 6.6267449e-04 1.5763176e-04 
-5.6819827e-04 4.3410144e-04 3.3295157e-04 
-3.9225232e-04 5.4150581e-04 1.0449772e-04 
-7.7106367e-04 7.6450978e-04 2.3367190e-04 
-7.5692788e-04 5.4396229e-04 4.4403324e-04 
-3.9672892e-04 3.1898686e-04 2.4425745e-04 
-9.5005275e-04 6.3985848e-04 5.8155868e-04 
-9.7233220e-04 8.4028079e-04 3.3688612e-04 
-2.4064111e-04 4.1112278e-04 6.9624468e-05 
-1.0188672e-02 9.0404344e-04 8.9704767e-03 
-1.8575597e-07 1.8558884e-08 1.9147373e-08 
-2.5272084e-04 2.0997108e-04 1.7393719e-04 
-1.1333232e-03 7.1675907e-04 7.4945047e-04 
-1.1619651e-03 8.8695448e-04 4.7105423e-04 
-1.2640120e-04 2.8408965e-04 4.8144619e-05 
0.0000000e+00 0.0000000e+00 0.0000000e+00 
-1.4254716e-04 1.1927148e-04 1.1825038e-04 
-1.0805425e-08 1.5405498e-09 5.2100130e-10 
-1.2921954e-03 7.7377312e-04 9.5137011e-04 
0.0000000e+00 0.0000000e+00 0.0000000e+00 
-6.0025472e-03 1.0083605e-03 5.2780863e-03 
-1.3252640e-03 9.0501545e-04 6.3943054e-04 
-5.2618652e-05 1.7376296e-04 3.5153258e-05 
-1.3870301e-02 1.4747244e-03 1.1590240e-02 
-1.4001629e-02 1.6514775e-03 1.2694762e-02 
-6.0808235e-03 1.2638253e-03 4.5681107e-03 
-1.0215743e-02 9.2446717e-04 9.8370742e-03 
-1.7652458e-02 2.0665955e-03 1.2619261e-02 
-1.0253895e-02 9.9304668e-04 8.0481851e-03 
-6.7991059e-05 5.7333524e-05 7.4025200e-05 
-1.4124773e-03 8.1423408e-04 1.1905998e-03 
-1.7820485e-02 2.2708359e-03 1.3767408e-02 
-1.6025682e-05 9.1846618e-05 2.5895199e-05 
-1.4480217e-03 8.9805369e-04 8.4489194e-04 
-2.6447347e-05 2.9703939e-05 3.9122282e-05 
-1.0206465e-02 9.0854638e-04 8.8623576e-03 
-1.4815258e-03 8.4592018e-04 1.4694486e-03 
-1.1166802e-08 2.3398896e-09 -3.9587895e-11 
0.0000000e+00 0.0000000e+00 0.0000000e+00 
3.4114742e-06 3.6215082e-05 1.5764012e-05 
-1.5169220e-03 8.7192550e-04 1.0908394e-03 
-1.0239603e-02 9.9405553e-04 1.0746406e-02 
-6.1807414e-03 8.5646473e-04 5.9462544e-03 
-6.2568621e-03 1.0701480e-03 5.1929201e-03 
-6.4853353e-08 7.0032189e-09 6.7143993e-09 
-1.3872433e-02 1.6174909e-03 1.2588210e-02 
-1.7717737e-05 -7.2920052e-06 1.2019937e-05 
0.0000000e+00 0.0000000e+00 0.0000000e+00 
-1.0187007e-02 9.1424823e-04 9.7244354e-03 
-1.5489821e-03 8.1945356e-04 1.7911544e-03 
-1.4031813e-02 1.8422677e-03 1.3745860e-02 
0.0000000e+00 0.0000000e+00 0.0000000e+00 
-1.5845334e-03 8.9425832e-04 1.3774004e-03 
-1.7678373e-02 2.2278398e-03 1.3663439e-02 
-8.3140958e-06 -9.8511930e-07 3.5961746e-06 
-2.4626297e-09 8.3665624e-10 6.0233524e-10 
0.0000000e+00 0.0000000e+00 0.0000000e+00 
-1.0260703e-02 1.1083107e-03 1.1700496e-02 
-1.7867632e-02 2.4816985e-03 1.4866730e-02 
-6.3118106e-03 7.3281664e-04 6.6499887e-03 
0.0000000e+00 0.0000000e+00 0.0000000e+00 
-1.6637880e-03 7.8656315e-04 2.1565519e-03 
-1.7013986e-03 8.9678058e-04 1.7049836e-03 
-6.3801557e-03 8.9640479e-04 5.8559305e-03 
-1.0171356e-02 9.7344659e-04 1.0630561e-02 
-3.3139524e-09 4.7325105e-10 1.7763664e-10 
0.0000000e+00 0.0000000e+00 0.0000000e+00 
-3.5519402e-06 -5.4587243e-08 1.1766895e-06 
-1.3878574e-02 1.8021654e-03 1.3636096e-02 
0.0000000e+00 0.0000000e+00 0.0000000e+00 
-1.8099525e-03 7.4067514e-04 2.5664892e-03 
-1.8504722e-03 8.7525015e-04 2.0749271e-03 
-2.1700316e-08 2.5134130e-09 2.2875946e-09 
-1.4060278e-02 2.0708924e-03 1.4846474e-02 
-6.4002243e-03 6.4602424e-04 7.3855757e-03 
0.0000000e+00 0.0000000e+00 0.0000000e+00 
-1.7703012e-02 2.4344225e-03 1.4758565e-02 
-1.0159713e-02 1.0794045e-03 1.1582796e-02 
-1.0279799e-02 1.2636801e-03 1.2701274e-02 
-6.4544515e-03 7.5444096e-04 6.5544774e-03 
-1.4712489e-06 -2.0154538e-09 4.1414202e-07 
0.0000000e+00 0.0000000e+00 0.0000000e+00 
-1.9725061e-03 6.7957421e-04 3.0215681e-03 
-2.0163660e-03 8.2870113e-04 2.4879582e-03 
-1.7909253e-02 2.7334944e-03 1.6016128e-02 
-4.1059214e-09 9.0107394e-10 -1.1611738e-11 
0.0000000e+00 0.0000000e+00 0.0000000e+00 
-6.4470102e-03 5.6330167e-04 8.1459647e-03 
-1.3887178e-02 2.0258673e-03 1.4734387e-02 
-5.8398973e-07 4.1774384e-09 1.5138887e-07 
-6.4867144e-03 6.5370370e-04 7.2852308e-03 
-1.0151677e-02 1.2281036e-03 1.2582554e-02 
-2.1378768e-03 6.0477102e-04 3.5218033e-03 
0.0000000e+00 0.0000000e+00 0.0000000e+00 
-2.1849717e-03 7.5908779e-04 2.9443717e-03 
-1.0297472e-02 1.4576112e-03 1.3750306e-02 
-6.4778463e-03 5.5201753e-04 8.9791445e-03 
-1.4086878e-02 2.3355766e-03 1.5997378e-02 
-1.7726034e-02 2.6827080e-03 1.5904900e-02 
-8.9686136e-10 3.0354300e-10 2.3437197e-10 
0.0000000e+00 0.0000000e+00 0.0000000e+00 
-9.7860309e-10 1.3705902e-10 5.9109287e-11 
0.0000000e+00 0.0000000e+00 0.0000000e+00 
-6.9596431e-09 8.5858137e-10 7.5524242e-10 
0.0000000e+00 0.0000000e+00 0.0000000e+00 
-2.2942771e-03 5.2087050e-04 4.0665795e-03 
-6.4953892e-03 5.9253571e-04 9.8480359e-03 
-6.5074903e-03 5.9318391e-04 8.0456501e-03 
-2.3437997e-03 6.7110290e-04 3.4440942e-03 
-2.2191574e-07 3.2001066e-09 5.5670178e-08 
0.0000000e+00 0.0000000e+00 0.0000000e+00 
-1.0146595e-02 1.4166002e-03 1.3631064e-02 
-6.4651589e-03 5.5142742e-04 8.8605536e-03 
-1.3897159e-02 2.2865406e-03 1.5883613e-02 
-1.7945830e-02 3.0234698e-03 1.7216256e-02 
-1.0314055e-02 1.6882900e-03 1.4848858e-02 
-6.5119984e-03 6.7083561e-04 1.0758769e-02 
-2.4323189e-03 4.3476335e-04 4.6546380e-03 
-2.4826059e-03 5.7181652e-04 3.9866511e-03 
-6.4506438e-03 5.8072712e-04 9.7240275e-03 
-8.0665536e-08 1.6854166e-09 2.0168102e-08 
0.0000000e+00 0.0000000e+00 0.0000000e+00 
-1.7747169e-02 2.9698105e-03 1.7102806e-02 
-1.4111365e-02 2.6348357e-03 1.7199274e-02 
-6.5272963e-03 7.8692788e-04 1.1713397e-02 
-1.0143851e-02 1.6427904e-03 1.4729395e-02 
-2.5455984e-03 3.5461149e-04 5.2840626e-03 
-6.4373235e-03 6.5040286e-04 1.0631886e-02 
-2.5940528e-03 4.6999299e-04 4.5711077e-03 
-1.4779394e-09 3.3831035e-10 -4.0475709e-12 
0.0000000e+00 0.0000000e+00 0.0000000e+00 
-2.1399755e-09 2.7934216e-10 2.4148628e-10 
0.0000000e+00 0.0000000e+00 0.0000000e+00 
-1.0329664e-02 1.9543346e-03 1.5997963e-02 
-1.3907720e-02 2.5825286e-03 1.7084297e-02 
-2.7867136e-10 3.7155522e-11 1.9163778e-11 
0.0000000e+00 0.0000000e+00 0.0000000e+00 
-2.6310335e-03 2.8867504e-04 5.9522619e-03 
-6.4254822e-03 7.5916637e-04 1.1585309e-02 
-6.5413225e-03 9.4021822e-04 1.2713870e-02 
-2.6741868e-03 3.7513443e-04 5.1960065e-03 
-2.8029293e-08 7.3985867e-10 7.1179675e-09 
-3.2078293e-10 1.0836188e-10 8.8308916e-11 
-1.7977588e-02 3.3491785e-03 1.8467721e-02 
0.0000000e+00 0.0000000e+00 0.0000000e+00 
0.0000000e+00 0.0000000e+00 0.0000000e+00 
2.2484949e-04 -2.6759709e-04 1.5225909e-04 
2.6025603e-04 -2.6546203e-04 3.3045182e-04 
1.9809532e-04 -2.5169516e-04 9.9518860e-05 
2.4758786e-04 -2.8231743e-04 2.2837351e-04 
2.8440630e-04 -2.7937157e-04 4.4129195e-04 
2.3249484e-04 -2.4189314e-04 2.4233563e-04 
3.1139317e-04 -2.8750088e-04 5.7897664e-04 
2.7334856e-04 -3.0018782e-04 3.3222028e-04 
1.6317909e-04 -2.2938193e-04 6.5391287e-05 
1.9754302e-04 -2.0478267e-04 1.7284371e-04 
3.5001378e-04 -2.9237827e-04 7.4745616e-04 
3.1136570e-04 -3.2384443e-04 4.6763485e-04 
1.1950896e-04 -1.9568938e-04 4.4887583e-05 
-1.0142932e-02 1.9050989e-03 1.5878448e-02 
1.5494635e-04 -1.5204572e-04 1.1812804e-04 
4.1078060e-04 -2.9421679e-04 9.5035706e-04 
-2.6888293e-03 2.4408189e-04 6.6559673e-03 
3.7243546e-04 -3.5369676e-04 6.3788786e-04 
7.0560171e-05 -1.4751086e-04 3.3006701e-05 
-1.7766191e-02 3.2932132e-03 1.8352667e-02 
-2.7226077e-03 2.9637790e-04 5.8593210e-03 
-1.4133435e-02 2.9671800e-03 1.8452765e-02 
-6.4153434e-03 9.0622384e-04 1.2585606e-02 
1.0721567e-04 -8.5670043e-05 7.4866519e-05 
5.0527492e-04 -2.9026816e-04 1.1908145e-03 
-6.5542525e-03 1.1300468e-03 1.3761926e-02 
2.4046163e-05 -8.5718588e-05 2.4920995e-05 
4.6845112e-04 -3.8755516e-04 8.4583455e-04 
5.8709025e-05 -1.3832087e-05 4.0711875e-05 
-1.0344251e-02 2.2545117e-03 1.7198455e-02 